
                                 *****************
                                 * O   R   C   A *
                                 *****************

                                            #,                                       
                                            ###                                      
                                            ####                                     
                                            #####                                    
                                            ######                                   
                                           ########,                                 
                                     ,,################,,,,,                         
                               ,,#################################,,                 
                          ,,##########################################,,             
                       ,#########################################, ''#####,          
                    ,#############################################,,   '####,        
                  ,##################################################,,,,####,       
                ,###########''''           ''''###############################       
              ,#####''   ,,,,##########,,,,          '''####'''          '####       
            ,##' ,,,,###########################,,,                        '##       
           ' ,,###''''                  '''############,,,                           
         ,,##''                                '''############,,,,        ,,,,,,###''
      ,#''                                            '''#######################'''  
     '                                                          ''''####''''         
             ,#######,   #######,   ,#######,      ##                                
            ,#'     '#,  ##    ##  ,#'     '#,    #''#        ######   ,####,        
            ##       ##  ##   ,#'  ##            #'  '#       #        #'  '#        
            ##       ##  #######   ##           ,######,      #####,   #    #        
            '#,     ,#'  ##    ##  '#,     ,#' ,#      #,         ##   #,  ,#        
             '#######'   ##     ##  '#######'  #'      '#     #####' # '####'        



                  #######################################################
                  #                        -***-                        #
                  #          Department of theory and spectroscopy      #
                  #    Directorship and core code : Frank Neese         #
                  #        Max Planck Institute fuer Kohlenforschung    #
                  #                Kaiser Wilhelm Platz 1               #
                  #                 D-45470 Muelheim/Ruhr               #
                  #                      Germany                        #
                  #                                                     #
                  #                  All rights reserved                #
                  #                        -***-                        #
                  #######################################################


                         Program Version 5.0.2 -  RELEASE  -


 With contributions from (in alphabetic order):
   Daniel Aravena         : Magnetic Suceptibility
   Michael Atanasov       : Ab Initio Ligand Field Theory (pilot matlab implementation)
   Alexander A. Auer      : GIAO ZORA, VPT2 properties, NMR spectrum
   Ute Becker             : Parallelization
   Giovanni Bistoni       : ED, misc. LED, open-shell LED, HFLD
   Martin Brehm           : Molecular dynamics
   Dmytro Bykov           : SCF Hessian
   Vijay G. Chilkuri      : MRCI spin determinant printing, contributions to CSF-ICE
   Dipayan Datta          : RHF DLPNO-CCSD density
   Achintya Kumar Dutta   : EOM-CC, STEOM-CC
   Dmitry Ganyushin       : Spin-Orbit,Spin-Spin,Magnetic field MRCI
   Miquel Garcia          : C-PCM and meta-GGA Hessian, CC/C-PCM, Gaussian charge scheme
   Yang Guo               : DLPNO-NEVPT2, F12-NEVPT2, CIM, IAO-localization
   Andreas Hansen         : Spin unrestricted coupled pair/coupled cluster methods
   Benjamin Helmich-Paris : MC-RPA, TRAH-SCF, COSX integrals
   Lee Huntington         : MR-EOM, pCC
   Robert Izsak           : Overlap fitted RIJCOSX, COSX-SCS-MP3, EOM
   Marcus Kettner         : VPT2
   Christian Kollmar      : KDIIS, OOCD, Brueckner-CCSD(T), CCSD density, CASPT2, CASPT2-K
   Simone Kossmann        : Meta GGA functionals, TD-DFT gradient, OOMP2, MP2 Hessian
   Martin Krupicka        : Initial AUTO-CI
   Lucas Lang             : DCDCAS
   Marvin Lechner         : AUTO-CI (C++ implementation), FIC-MRCC
   Dagmar Lenk            : GEPOL surface, SMD
   Dimitrios Liakos       : Extrapolation schemes; Compound Job, initial MDCI parallelization
   Dimitrios Manganas     : Further ROCIS development; embedding schemes
   Dimitrios Pantazis     : SARC Basis sets
   Anastasios Papadopoulos: AUTO-CI, single reference methods and gradients
   Taras Petrenko         : DFT Hessian,TD-DFT gradient, ASA, ECA, R-Raman, ABS, FL, XAS/XES, NRVS
   Peter Pinski           : DLPNO-MP2, DLPNO-MP2 Gradient
   Christoph Reimann      : Effective Core Potentials
   Marius Retegan         : Local ZFS, SOC
   Christoph Riplinger    : Optimizer, TS searches, QM/MM, DLPNO-CCSD(T), (RO)-DLPNO pert. Triples
   Tobias Risthaus        : Range-separated hybrids, TD-DFT gradient, RPA, STAB
   Michael Roemelt        : Original ROCIS implementation
   Masaaki Saitow         : Open-shell DLPNO-CCSD energy and density
   Barbara Sandhoefer     : DKH picture change effects
   Avijit Sen             : IP-ROCIS
   Kantharuban Sivalingam : CASSCF convergence, NEVPT2, FIC-MRCI
   Bernardo de Souza      : ESD, SOC TD-DFT
   Georgi Stoychev        : AutoAux, RI-MP2 NMR, DLPNO-MP2 response
   Willem Van den Heuvel  : Paramagnetic NMR
   Boris Wezisla          : Elementary symmetry handling
   Frank Wennmohs         : Technical directorship


 We gratefully acknowledge several colleagues who have allowed us to
 interface, adapt or use parts of their codes:
   Stefan Grimme, W. Hujo, H. Kruse, P. Pracht,  : VdW corrections, initial TS optimization,
                  C. Bannwarth, S. Ehlert          DFT functionals, gCP, sTDA/sTD-DF
   Ed Valeev, F. Pavosevic, A. Kumar             : LibInt (2-el integral package), F12 methods
   Garnet Chan, S. Sharma, J. Yang, R. Olivares  : DMRG
   Ulf Ekstrom                                   : XCFun DFT Library
   Mihaly Kallay                                 : mrcc  (arbitrary order and MRCC methods)
   Jiri Pittner, Ondrej Demel                    : Mk-CCSD
   Frank Weinhold                                : gennbo (NPA and NBO analysis)
   Christopher J. Cramer and Donald G. Truhlar   : smd solvation model
   Lars Goerigk                                  : TD-DFT with DH, B97 family of functionals
   V. Asgeirsson, H. Jonsson                     : NEB implementation
   FAccTs GmbH                                   : IRC, NEB, NEB-TS, DLPNO-Multilevel, CI-OPT
                                                   MM, QMMM, 2- and 3-layer-ONIOM, Crystal-QMMM,
                                                   LR-CPCM, SF, NACMEs, symmetry and pop. for TD-DFT,
                                                   nearIR, NL-DFT gradient (VV10), updates on ESD,
                                                   ML-optimized integration grids
   S Lehtola, MJT Oliveira, MAL Marques          : LibXC Library
   Liviu Ungur et al                             : ANISO software


 Your calculation uses the libint2 library for the computation of 2-el integrals
 For citations please refer to: http://libint.valeyev.net

 Your ORCA version has been built with support for libXC version: 5.1.0
 For citations please refer to: https://tddft.org/programs/libxc/

 This ORCA versions uses:
   CBLAS   interface :  Fast vector & matrix operations
   LAPACKE interface :  Fast linear algebra routines
   SCALAPACK package :  Parallel linear algebra routines
   Shared memory     :  Shared parallel matrices
   BLAS/LAPACK       :  OpenBLAS 0.3.15  USE64BITINT DYNAMIC_ARCH NO_AFFINITY SkylakeX SINGLE_THREADED
        Core in use  :  SkylakeX
   Copyright (c) 2011-2014, The OpenBLAS Project


Your calculation utilizes the atom-pairwise dispersion correction
based on tight binding partial charges (D4)
Cite in your paper:
E.Caldeweyher, C.Bannwarth, S.Grimme, J.Chem.Phys., (2017), 147, 034112.
E.Caldeweyher, S.Ehlert, A.Hansen, H.Neugebauer, S.Grimme, J.Chem.Phys., (2018), in progress.
   

================================================================================

cite the ECPs for Ir [Def2-ECP] as follows:
Ce-Yb(ecp-28): M. Dolg, H. Stoll, H.Preuss, J. Chem. Phys., 1989, 90, 1730-1734.
Y-Cd(ecp-28), Hf-Hg(ecp-46): D. Andrae,U. Haeussermann, M. Dolg, H. Stoll, H. Preuss, Theor. Chim. Acta, 1990, 77, 123-141.
In-Sb(ecp-28), Tl-Bi(ecp-46): B. Metz, H. Stoll, M. Dolg, J. Chem. Phys., 2000, 113, 2563-2569.
Te-Xe(ecp-28), Po-Rn(ecp-46): K. A. Peterson, D. Figgen, E. Goll, H. Stoll, M. Dolg, J. Chem. Phys., 2003, 119, 11113-11123.
Rb(ecp-28), Cs(ecp-46): T. Leininger, A. Nicklass, W. Kuechle, H. Stoll, M. Dolg, A. Bergner, Chem. Phys. Lett., 1996, 255, 274-280.
Sr(ecp-28), Ba(ecp-46): M. Kaupp, P. V. Schleyer, H. Stoll and H. Preuss, J. Chem. Phys., 1991, 94, 1360-1366.
La(ecp-46): M. Dolg, H. Stoll, A. Savin, H. Preuss, Theor. Chim. Acta, 1989, 75, 173-194.
Lu(ecp-28): X. Cao, M. Dolg, J. Chem. Phys., 2001, 115, 7348-7355.

ECP parameters for Ir [Def2-ECP] have been obtained from:
TURBOMOLE (7.0.2)

----- Orbital basis set information -----
Your calculation utilizes the basis: def2-TZVP
   F. Weigend and R. Ahlrichs, Phys. Chem. Chem. Phys. 7, 3297 (2005).

----- AuxJ basis set information -----
Your calculation utilizes the auxiliary basis: def2/J
   F. Weigend, Phys. Chem. Chem. Phys. 8, 1057 (2006).

================================================================================
                                        WARNINGS
                       Please study these warnings very carefully!
================================================================================


WARNING: Geometry Optimization
  ===> : Switching off AutoStart
         For restart on a previous wavefunction, please use MOREAD

INFO   : the flag for use of the SHARK integral package has been found!

================================================================================
                                       INPUT FILE
================================================================================
NAME = s0_opt.inp
|  1> !B3LYP DEF2-TZVP OPT CPCM(CH2CL2) D4 AIM
|  2> %GEOM TOLE 5E-6 END
|  3> %PAL NPROCS 8 END
|  4> %MAXCORE 2000
|  5> * XYZ 0 1
|  6> C        3.393895879     -0.289566719      2.776304932
|  7> C        4.076284431     -1.374299959      2.244246939
|  8> C        3.562788518     -2.026286944      1.144617313
|  9> C        2.365194919     -1.600441421      0.563698783
| 10> C        1.656920791     -0.490717084      1.087023288
| 11> C        2.209908242      0.138316955      2.204838066
| 12> C        1.779556093     -2.262575837     -0.593808565
| 13> C        2.310998596     -3.397126504     -1.214621244
| 14> C        1.678633212     -3.946679457     -2.310344980
| 15> C        0.513725976     -3.353425417     -2.779039051
| 16> C        0.041132843     -2.238327622     -2.115943483
| 17> N        0.643735830     -1.703611386     -1.062120264
| 18> C       -3.228320892     -2.843015891      2.244246939
| 19> C       -1.947720074     -2.794416690      2.776304932
| 20> C       -0.985168124     -1.982995155      2.204838066
| 21> C       -1.253433856     -1.189576955      1.087023288
| 22> C       -2.568620388     -1.248098174      0.563698783
| 23> C       -3.536210228     -2.072321893      1.144617313
| 24> C       -2.849226199     -0.409852865     -0.593808565
| 25> N       -1.797238653      0.294314111     -1.062120264
| 26> C       -1.959015004      1.083541724     -2.115943483
| 27> C       -3.161014589      1.231812963     -2.779039051
| 28> C       -4.257241276      0.519600723     -2.310344980
| 29> C       -4.097497151     -0.302820240     -1.214621244
| 30> C       -0.403486935      1.680294039      1.087023288
| 31> C       -1.224740118      1.844678200      2.204838066
| 32> C       -1.446175805      3.083983409      2.776304932
| 33> C       -0.847963539      4.217315849      2.244246939
| 34> C       -0.026578290      4.098608837      1.144617313
| 35> C        0.203425469      2.848539595      0.563698783
| 36> C        1.069670107      2.672428702     -0.593808565
| 37> C        1.786498555      3.699946745     -1.214621244
| 38> C        2.578608064      3.427078734     -2.310344980
| 39> C        2.647288613      2.121612454     -2.779039051
| 40> C        1.917882161      1.154785898     -2.115943483
| 41> N        1.153502823      1.409297275     -1.062120264
| 42> Ir       0.000000000      0.000000000      0.043448572
| 43> H        3.792342787      0.222162593      3.641507453
| 44> H        5.002872009     -1.707739869      2.689139743
| 45> H        4.102575829     -2.869480849      0.738507580
| 46> H        1.696641422      0.983426029      2.641159087
| 47> H        3.213678708     -3.847263406     -0.836341679
| 48> H        2.081671478     -4.823466100     -2.794933558
| 49> H       -0.013921102     -3.747584685     -3.633027960
| 50> H       -0.865398626     -1.751267403     -2.451342694
| 51> H       -3.980382114     -3.478744318      2.689139743
| 52> H       -1.703772945     -3.395346490      3.641507453
| 53> H        0.003351213     -1.961047587      2.641159087
| 54> H       -4.536331226     -2.118194464      0.738507580
| 55> H       -1.083942747      1.625090897     -2.451342694
| 56> H       -3.238542989      1.885848371     -3.633027960
| 57> H       -5.218079916      0.608952668     -2.794933558
| 58> H       -4.938667199     -0.859495698     -0.836341679
| 59> H       -1.699992635      0.977621558      2.641159087
| 60> H       -2.088569843      3.173183897      3.641507453
| 61> H       -1.022489895      5.186484186      2.689139743
| 62> H        0.433755396      4.987675313      0.738507580
| 63> H        1.724988490      4.706759104     -0.836341679
| 64> H        3.136408438      4.214513433     -2.794933558
| 65> H        3.252464091      1.861736314     -3.633027960
| 66> H        1.949341373      0.126176507     -2.451342694
| 67> **                         ****END OF INPUT****
================================================================================

                       *****************************
                       * Geometry Optimization Run *
                       *****************************

Geometry optimization settings:
Update method            Update   .... BFGS
Choice of coordinates    CoordSys .... Z-matrix Internals
Initial Hessian          InHess   .... Almoef's Model

Convergence Tolerances:
Energy Change            TolE     ....  5.0000e-06 Eh
Max. Gradient            TolMAXG  ....  3.0000e-04 Eh/bohr
RMS Gradient             TolRMSG  ....  1.0000e-04 Eh/bohr
Max. Displacement        TolMAXD  ....  4.0000e-03 bohr
RMS Displacement         TolRMSD  ....  2.0000e-03 bohr
Strict Convergence                ....  False
------------------------------------------------------------------------------
                        ORCA OPTIMIZATION COORDINATE SETUP
------------------------------------------------------------------------------

The optimization will be done in new redundant internal coordinates
Making redundant internal coordinates   ...  (new redundants) done
Evaluating the initial hessian          ...  (Almloef) done
Evaluating the coordinates              ...  done
Calculating the B-matrix                .... done
Calculating the G-matrix                .... done
Diagonalizing the G-matrix              .... done
Small eigenvalue found = 1.228e-02
Small eigenvalue found = 1.228e-02
Small eigenvalue found = 2.000e-02
Small eigenvalue found = 2.251e-02
Small eigenvalue found = 2.251e-02
Small eigenvalue found = 2.267e-02
Small eigenvalue found = 2.338e-02
The first mode is                       ....  231
The number of degrees of freedom        ....  177

    -----------------------------------------------------------------
                    Redundant Internal Coordinates


    -----------------------------------------------------------------
         Definition                    Initial Value    Approx d2E/dq
    -----------------------------------------------------------------
      1. B(C   1,C   0)                  1.3876         0.630369   
      2. B(C   2,C   1)                  1.3777         0.653769   
      3. B(C   3,C   2)                  1.3975         0.607789   
      4. B(C   4,C   3)                  1.4167         0.566444   
      5. B(C   5,C   4)                  1.3968         0.609431   
      6. B(C   5,C   0)                  1.3826         0.642097   
      7. B(C   6,C   3)                  1.4564         0.489483   
      8. B(C   7,C   6)                  1.3982         0.606191   
      9. B(C   8,C   7)                  1.3793         0.649813   
     10. B(C   9,C   8)                  1.3888         0.627666   
     11. B(C  10,C   9)                  1.3808         0.646382   
     12. B(N  11,C  10)                  1.3265         0.706626   
     13. B(N  11,C   6)                  1.3498         0.648754   
     14. B(C  13,C  12)                  1.3876         0.630369   
     15. B(C  14,C  13)                  1.3826         0.642097   
     16. B(C  15,C  14)                  1.3968         0.609431   
     17. B(C  16,C  15)                  1.4167         0.566444   
     18. B(C  17,C  16)                  1.3975         0.607789   
     19. B(C  17,C  12)                  1.3777         0.653769   
     20. B(C  18,C  16)                  1.4564         0.489483   
     21. B(N  19,C  18)                  1.3498         0.648754   
     22. B(C  20,N  19)                  1.3265         0.706626   
     23. B(C  21,C  20)                  1.3808         0.646382   
     24. B(C  22,C  21)                  1.3888         0.627666   
     25. B(C  23,C  22)                  1.3793         0.649813   
     26. B(C  23,C  18)                  1.3982         0.606191   
     27. B(C  25,C  24)                  1.3968         0.609431   
     28. B(C  26,C  25)                  1.3826         0.642097   
     29. B(C  27,C  26)                  1.3876         0.630369   
     30. B(C  28,C  27)                  1.3777         0.653769   
     31. B(C  29,C  24)                  1.4167         0.566444   
     32. B(C  29,C  28)                  1.3975         0.607789   
     33. B(C  30,C  29)                  1.4564         0.489483   
     34. B(C  31,C  30)                  1.3982         0.606191   
     35. B(C  32,C  31)                  1.3793         0.649813   
     36. B(C  33,C  32)                  1.3888         0.627666   
     37. B(C  34,C  33)                  1.3808         0.646382   
     38. B(N  35,C  34)                  1.3265         0.706626   
     39. B(N  35,C  30)                  1.3498         0.648754   
     40. B(Ir 36,N  35)                  2.1305         0.085788   
     41. B(Ir 36,C  24)                  2.0187         0.144412   
     42. B(Ir 36,N  19)                  2.1305         0.085788   
     43. B(Ir 36,C  15)                  2.0187         0.144412   
     44. B(Ir 36,N  11)                  2.1305         0.085788   
     45. B(Ir 36,C   4)                  2.0187         0.144412   
     46. B(H  37,C   0)                  1.0813         0.371800   
     47. B(H  38,C   1)                  1.0806         0.372765   
     48. B(H  39,C   2)                  1.0804         0.373022   
     49. B(H  40,C   5)                  1.0808         0.372542   
     50. B(H  41,C   7)                  1.0773         0.377315   
     51. B(H  42,C   8)                  1.0798         0.373816   
     52. B(H  43,C   9)                  1.0785         0.375698   
     53. B(H  44,C  10)                  1.0824         0.370340   
     54. B(H  45,C  12)                  1.0806         0.372765   
     55. B(H  46,C  13)                  1.0813         0.371800   
     56. B(H  47,C  14)                  1.0808         0.372542   
     57. B(H  48,C  17)                  1.0804         0.373022   
     58. B(H  49,C  20)                  1.0824         0.370340   
     59. B(H  50,C  21)                  1.0785         0.375698   
     60. B(H  51,C  22)                  1.0798         0.373816   
     61. B(H  52,C  23)                  1.0773         0.377315   
     62. B(H  53,C  25)                  1.0808         0.372542   
     63. B(H  54,C  26)                  1.0813         0.371800   
     64. B(H  55,C  27)                  1.0806         0.372765   
     65. B(H  56,C  28)                  1.0804         0.373022   
     66. B(H  57,C  31)                  1.0773         0.377315   
     67. B(H  58,C  32)                  1.0798         0.373816   
     68. B(H  59,C  33)                  1.0785         0.375698   
     69. B(H  60,C  34)                  1.0824         0.370340   
     70. A(C   5,C   0,H  37)          119.9889         0.356941   
     71. A(C   1,C   0,C   5)          120.3044         0.438120   
     72. A(C   1,C   0,H  37)          119.7067         0.355826   
     73. A(C   0,C   1,C   2)          119.5196         0.439547   
     74. A(C   2,C   1,H  38)          120.1456         0.358194   
     75. A(C   0,C   1,H  38)          120.3347         0.355982   
     76. A(C   3,C   2,H  39)          120.6445         0.353828   
     77. A(C   1,C   2,C   3)          120.4636         0.436664   
     78. A(C   1,C   2,H  39)          118.8917         0.358236   
     79. A(C   4,C   3,C   6)          116.6582         0.409470   
     80. A(C   2,C   3,C   6)          122.4397         0.414621   
     81. A(C   2,C   3,C   4)          120.9019         0.425563   
     82. A(C   3,C   4,C   5)          116.7731         0.425769   
     83. A(C   5,C   4,Ir 36)          128.9896         0.351047   
     84. A(C   3,C   4,Ir 36)          114.1922         0.346744   
     85. A(C   0,C   5,H  40)          118.8055         0.357062   
     86. A(C   4,C   5,H  40)          119.1582         0.353913   
     87. A(C   0,C   5,C   4)          122.0359         0.435461   
     88. A(C   3,C   6,C   7)          124.6755         0.414427   
     89. A(C   7,C   6,N  11)          120.1202         0.432998   
     90. A(C   3,C   6,N  11)          115.2042         0.416745   
     91. A(C   6,C   7,H  41)          120.1071         0.354357   
     92. A(C   6,C   7,C   8)          120.1157         0.435980   
     93. A(C   8,C   7,H  41)          119.7768         0.358563   
     94. A(C   9,C   8,H  42)          120.5633         0.355893   
     95. A(C   7,C   8,C   9)          118.8468         0.438725   
     96. A(C   7,C   8,H  42)          120.5899         0.357996   
     97. A(C   8,C   9,C  10)          118.0356         0.438306   
     98. A(C  10,C   9,H  43)          120.5300         0.357979   
     99. A(C   8,C   9,H  43)          121.4341         0.356196   
    100. A(N  11,C  10,H  44)          116.4402         0.360317   
    101. A(C   9,C  10,H  44)          120.0840         0.357106   
    102. A(C   9,C  10,N  11)          123.4756         0.444849   
    103. A(C  10,N  11,Ir 36)          126.6789         0.326151   
    104. A(C   6,N  11,Ir 36)          113.9138         0.321609   
    105. A(C   6,N  11,C  10)          119.4052         0.442213   
    106. A(C  13,C  12,H  45)          120.3347         0.355982   
    107. A(C  17,C  12,H  45)          120.1456         0.358194   
    108. A(C  13,C  12,C  17)          119.5196         0.439547   
    109. A(C  14,C  13,H  46)          119.9889         0.356941   
    110. A(C  12,C  13,H  46)          119.7067         0.355826   
    111. A(C  12,C  13,C  14)          120.3044         0.438120   
    112. A(C  13,C  14,H  47)          118.8055         0.357062   
    113. A(C  15,C  14,H  47)          119.1582         0.353913   
    114. A(C  13,C  14,C  15)          122.0359         0.435461   
    115. A(C  14,C  15,Ir 36)          128.9896         0.351047   
    116. A(C  14,C  15,C  16)          116.7731         0.425769   
    117. A(C  16,C  15,Ir 36)          114.1922         0.346744   
    118. A(C  17,C  16,C  18)          122.4397         0.414621   
    119. A(C  15,C  16,C  18)          116.6582         0.409470   
    120. A(C  15,C  16,C  17)          120.9019         0.425563   
    121. A(C  16,C  17,H  48)          120.6445         0.353828   
    122. A(C  12,C  17,H  48)          118.8917         0.358236   
    123. A(C  12,C  17,C  16)          120.4636         0.436664   
    124. A(C  16,C  18,N  19)          115.2042         0.416745   
    125. A(N  19,C  18,C  23)          120.1202         0.432998   
    126. A(C  16,C  18,C  23)          124.6755         0.414427   
    127. A(C  18,N  19,C  20)          119.4052         0.442213   
    128. A(C  20,N  19,Ir 36)          126.6789         0.326151   
    129. A(C  18,N  19,Ir 36)          113.9138         0.321609   
    130. A(C  21,C  20,H  49)          120.0840         0.357106   
    131. A(N  19,C  20,C  21)          123.4756         0.444849   
    132. A(N  19,C  20,H  49)          116.4402         0.360317   
    133. A(C  20,C  21,C  22)          118.0356         0.438306   
    134. A(C  22,C  21,H  50)          121.4341         0.356196   
    135. A(C  20,C  21,H  50)          120.5300         0.357979   
    136. A(C  21,C  22,C  23)          118.8468         0.438725   
    137. A(C  21,C  22,H  51)          120.5633         0.355893   
    138. A(C  23,C  22,H  51)          120.5899         0.357996   
    139. A(C  22,C  23,H  52)          119.7768         0.358563   
    140. A(C  18,C  23,H  52)          120.1071         0.354357   
    141. A(C  18,C  23,C  22)          120.1157         0.435980   
    142. A(C  25,C  24,Ir 36)          128.9896         0.351047   
    143. A(C  25,C  24,C  29)          116.7731         0.425769   
    144. A(C  29,C  24,Ir 36)          114.1922         0.346744   
    145. A(C  26,C  25,H  53)          118.8055         0.357062   
    146. A(C  24,C  25,H  53)          119.1582         0.353913   
    147. A(C  24,C  25,C  26)          122.0359         0.435461   
    148. A(C  27,C  26,H  54)          119.7067         0.355826   
    149. A(C  25,C  26,H  54)          119.9889         0.356941   
    150. A(C  25,C  26,C  27)          120.3044         0.438120   
    151. A(C  28,C  27,H  55)          120.1456         0.358194   
    152. A(C  26,C  27,H  55)          120.3347         0.355982   
    153. A(C  26,C  27,C  28)          119.5196         0.439547   
    154. A(C  29,C  28,H  56)          120.6445         0.353828   
    155. A(C  27,C  28,H  56)          118.8917         0.358236   
    156. A(C  27,C  28,C  29)          120.4636         0.436664   
    157. A(C  28,C  29,C  30)          122.4397         0.414621   
    158. A(C  24,C  29,C  30)          116.6582         0.409470   
    159. A(C  24,C  29,C  28)          120.9019         0.425563   
    160. A(C  31,C  30,N  35)          120.1202         0.432998   
    161. A(C  29,C  30,N  35)          115.2042         0.416745   
    162. A(C  29,C  30,C  31)          124.6755         0.414427   
    163. A(C  30,C  31,H  57)          120.1071         0.354357   
    164. A(C  30,C  31,C  32)          120.1157         0.435980   
    165. A(C  32,C  31,H  57)          119.7768         0.358563   
    166. A(C  33,C  32,H  58)          120.5633         0.355893   
    167. A(C  31,C  32,H  58)          120.5899         0.357996   
    168. A(C  31,C  32,C  33)          118.8468         0.438725   
    169. A(C  32,C  33,H  59)          121.4341         0.356196   
    170. A(C  32,C  33,C  34)          118.0356         0.438306   
    171. A(C  34,C  33,H  59)          120.5300         0.357979   
    172. A(C  33,C  34,H  60)          120.0840         0.357106   
    173. A(C  33,C  34,N  35)          123.4756         0.444849   
    174. A(N  35,C  34,H  60)          116.4402         0.360317   
    175. A(C  30,N  35,C  34)          119.4052         0.442213   
    176. A(C  34,N  35,Ir 36)          126.6789         0.326151   
    177. A(C  30,N  35,Ir 36)          113.9138         0.321609   
    178. A(C  15,Ir 36,N  19)           79.9725         0.265980   
    179. A(N  11,Ir 36,N  19)           95.5129         0.245176   
    180. A(C   4,Ir 36,N  19)          173.8431         0.265980   
    181. A(N  11,Ir 36,C  15)           89.1213         0.265980   
    182. A(C   4,Ir 36,C  15)           95.6900         0.289556   
    183. A(C   4,Ir 36,N  11)           79.9725         0.265980   
    184. A(C  24,Ir 36,N  35)           79.9725         0.265980   
    185. A(N  19,Ir 36,N  35)           95.5129         0.245176   
    186. A(C  15,Ir 36,N  35)          173.8431         0.265980   
    187. A(N  11,Ir 36,N  35)           95.5129         0.245176   
    188. A(C   4,Ir 36,N  35)           89.1213         0.265980   
    189. A(N  19,Ir 36,C  24)           89.1213         0.265980   
    190. A(C  15,Ir 36,C  24)           95.6900         0.289556   
    191. A(N  11,Ir 36,C  24)          173.8431         0.265980   
    192. A(C   4,Ir 36,C  24)           95.6900         0.289556   
    193. D(H  38,C   1,C   0,H  37)     -0.1008         0.027554   
    194. D(H  38,C   1,C   0,C   5)    179.8602         0.027554   
    195. D(C   2,C   1,C   0,C   5)     -0.2594         0.027554   
    196. D(C   2,C   1,C   0,H  37)    179.7796         0.027554   
    197. D(C   3,C   2,C   1,C   0)      0.1391         0.029784   
    198. D(H  39,C   2,C   1,C   0)    179.9848         0.029784   
    199. D(H  39,C   2,C   1,H  38)     -0.1346         0.029784   
    200. D(C   3,C   2,C   1,H  38)   -179.9803         0.029784   
    201. D(C   4,C   3,C   2,H  39)   -179.6329         0.025502   
    202. D(C   6,C   3,C   2,H  39)      0.5389         0.025502   
    203. D(C   6,C   3,C   2,C   1)   -179.6181         0.025502   
    204. D(C   4,C   3,C   2,C   1)      0.2101         0.025502   
    205. D(C   5,C   4,C   3,C   2)     -0.4232         0.021999   
    206. D(C   5,C   4,C   3,C   6)    179.4145         0.021999   
    207. D(Ir 36,C   4,C   3,C   2)    177.3579         0.021999   
    208. D(Ir 36,C   4,C   3,C   6)     -2.8043         0.021999   
    209. D(H  40,C   5,C   0,H  37)     -0.2602         0.028658   
    210. D(H  40,C   5,C   0,C   1)    179.7788         0.028658   
    211. D(H  40,C   5,C   4,Ir 36)      3.1616         0.025648   
    212. D(C   0,C   5,C   4,C   3)      0.3060         0.025648   
    213. D(C   0,C   5,C   4,Ir 36)   -177.0898         0.025648   
    214. D(H  40,C   5,C   4,C   3)   -179.4426         0.025648   
    215. D(C   4,C   5,C   0,H  37)    179.9903         0.028658   
    216. D(C   4,C   5,C   0,C   1)      0.0293         0.028658   
    217. D(N  11,C   6,C   3,C   4)      2.2432         0.016314   
    218. D(C   7,C   6,C   3,C   2)      2.1259         0.016314   
    219. D(N  11,C   6,C   3,C   2)   -177.9217         0.016314   
    220. D(C   7,C   6,C   3,C   4)   -177.7092         0.016314   
    221. D(H  41,C   7,C   6,C   3)      0.3900         0.025361   
    222. D(C   8,C   7,C   6,N  11)      0.2000         0.025361   
    223. D(C   8,C   7,C   6,C   3)   -179.8498         0.025361   
    224. D(H  41,C   7,C   6,N  11)   -179.5602         0.025361   
    225. D(H  42,C   8,C   7,H  41)     -0.1635         0.029399   
    226. D(H  42,C   8,C   7,C   6)   -179.9244         0.029399   
    227. D(C   9,C   8,C   7,H  41)    179.7830         0.029399   
    228. D(C   9,C   8,C   7,C   6)      0.0221         0.029399   
    229. D(H  43,C   9,C   8,H  42)     -0.1237         0.027303   
    230. D(C  10,C   9,C   8,H  42)    179.6841         0.027303   
    231. D(C  10,C   9,C   8,C   7)     -0.2624         0.027303   
    232. D(H  43,C   9,C   8,C   7)    179.9297         0.027303   
    233. D(H  44,C  10,C   9,C   8)   -179.8320         0.029068   
    234. D(H  44,C  10,C   9,H  43)     -0.0223         0.029068   
    235. D(N  11,C  10,C   9,H  43)   -179.8833         0.029068   
    236. D(N  11,C  10,C   9,C   8)      0.3070         0.029068   
    237. D(C   6,N  11,C  10,C   9)     -0.0883         0.041399   
    238. D(C  10,N  11,C   6,C   7)     -0.1684         0.034337   
    239. D(Ir 36,N  11,C  10,C   9)   -179.5322         0.041399   
    240. D(C   6,N  11,C  10,H  44)   -179.9540         0.041399   
    241. D(Ir 36,N  11,C   6,C   7)    179.3437         0.034337   
    242. D(C  10,N  11,C   6,C   3)    179.8768         0.034337   
    243. D(Ir 36,N  11,C   6,C   3)     -0.6111         0.034337   
    244. D(Ir 36,N  11,C  10,H  44)      0.6021         0.041399   
    245. D(H  46,C  13,C  12,H  45)     -0.1008         0.027554   
    246. D(H  46,C  13,C  12,C  17)    179.7796         0.027554   
    247. D(C  14,C  13,C  12,C  17)     -0.2594         0.027554   
    248. D(C  14,C  13,C  12,H  45)    179.8602         0.027554   
    249. D(H  47,C  14,C  13,H  46)     -0.2602         0.028658   
    250. D(H  47,C  14,C  13,C  12)    179.7788         0.028658   
    251. D(C  15,C  14,C  13,H  46)    179.9903         0.028658   
    252. D(C  15,C  14,C  13,C  12)      0.0293         0.028658   
    253. D(Ir 36,C  15,C  14,C  13)   -177.0898         0.025648   
    254. D(C  16,C  15,C  14,H  47)   -179.4426         0.025648   
    255. D(C  16,C  15,C  14,C  13)      0.3060         0.025648   
    256. D(Ir 36,C  15,C  14,H  47)      3.1616         0.025648   
    257. D(C  18,C  16,C  15,Ir 36)     -2.8043         0.021999   
    258. D(C  18,C  16,C  15,C  14)    179.4145         0.021999   
    259. D(C  17,C  16,C  15,Ir 36)    177.3579         0.021999   
    260. D(C  17,C  16,C  15,C  14)     -0.4232         0.021999   
    261. D(H  48,C  17,C  16,C  18)      0.5389         0.025502   
    262. D(H  48,C  17,C  16,C  15)   -179.6329         0.025502   
    263. D(C  12,C  17,C  16,C  18)   -179.6181         0.025502   
    264. D(C  12,C  17,C  16,C  15)      0.2101         0.025502   
    265. D(H  48,C  17,C  12,H  45)     -0.1346         0.029784   
    266. D(H  48,C  17,C  12,C  13)    179.9848         0.029784   
    267. D(C  16,C  17,C  12,H  45)   -179.9803         0.029784   
    268. D(C  16,C  17,C  12,C  13)      0.1391         0.029784   
    269. D(C  23,C  18,C  16,C  17)      2.1259         0.016314   
    270. D(C  23,C  18,C  16,C  15)   -177.7092         0.016314   
    271. D(N  19,C  18,C  16,C  17)   -177.9217         0.016314   
    272. D(N  19,C  18,C  16,C  15)      2.2432         0.016314   
    273. D(Ir 36,N  19,C  18,C  23)    179.3437         0.034337   
    274. D(Ir 36,N  19,C  18,C  16)     -0.6111         0.034337   
    275. D(C  20,N  19,C  18,C  23)     -0.1684         0.034337   
    276. D(C  20,N  19,C  18,C  16)    179.8768         0.034337   
    277. D(H  49,C  20,N  19,C  18)   -179.9540         0.041399   
    278. D(H  49,C  20,N  19,Ir 36)      0.6021         0.041399   
    279. D(C  21,C  20,N  19,Ir 36)   -179.5322         0.041399   
    280. D(C  21,C  20,N  19,C  18)     -0.0883         0.041399   
    281. D(H  50,C  21,C  20,H  49)     -0.0223         0.029068   
    282. D(H  50,C  21,C  20,N  19)   -179.8833         0.029068   
    283. D(C  22,C  21,C  20,H  49)   -179.8320         0.029068   
    284. D(C  22,C  21,C  20,N  19)      0.3070         0.029068   
    285. D(H  51,C  22,C  21,H  50)     -0.1237         0.027303   
    286. D(C  23,C  22,C  21,H  50)    179.9297         0.027303   
    287. D(C  23,C  22,C  21,C  20)     -0.2624         0.027303   
    288. D(H  51,C  22,C  21,C  20)    179.6841         0.027303   
    289. D(H  52,C  23,C  22,H  51)     -0.1635         0.029399   
    290. D(H  52,C  23,C  18,N  19)   -179.5602         0.025361   
    291. D(C  22,C  23,C  18,C  16)   -179.8498         0.025361   
    292. D(C  22,C  23,C  18,N  19)      0.2000         0.025361   
    293. D(C  18,C  23,C  22,C  21)      0.0221         0.029399   
    294. D(C  18,C  23,C  22,H  51)   -179.9244         0.029399   
    295. D(H  52,C  23,C  22,C  21)    179.7830         0.029399   
    296. D(H  52,C  23,C  18,C  16)      0.3900         0.025361   
    297. D(H  53,C  25,C  24,Ir 36)      3.1616         0.025648   
    298. D(C  26,C  25,C  24,Ir 36)   -177.0898         0.025648   
    299. D(C  26,C  25,C  24,C  29)      0.3060         0.025648   
    300. D(H  53,C  25,C  24,C  29)   -179.4426         0.025648   
    301. D(H  54,C  26,C  25,H  53)     -0.2602         0.028658   
    302. D(H  54,C  26,C  25,C  24)    179.9903         0.028658   
    303. D(C  27,C  26,C  25,H  53)    179.7788         0.028658   
    304. D(C  27,C  26,C  25,C  24)      0.0293         0.028658   
    305. D(H  55,C  27,C  26,H  54)     -0.1008         0.027554   
    306. D(H  55,C  27,C  26,C  25)    179.8602         0.027554   
    307. D(C  28,C  27,C  26,H  54)    179.7796         0.027554   
    308. D(C  28,C  27,C  26,C  25)     -0.2594         0.027554   
    309. D(H  56,C  28,C  27,H  55)     -0.1346         0.029784   
    310. D(H  56,C  28,C  27,C  26)    179.9848         0.029784   
    311. D(C  29,C  28,C  27,H  55)   -179.9803         0.029784   
    312. D(C  29,C  28,C  27,C  26)      0.1391         0.029784   
    313. D(C  24,C  29,C  28,H  56)   -179.6329         0.025502   
    314. D(C  24,C  29,C  28,C  27)      0.2101         0.025502   
    315. D(C  30,C  29,C  24,Ir 36)     -2.8043         0.021999   
    316. D(C  30,C  29,C  24,C  25)    179.4145         0.021999   
    317. D(C  28,C  29,C  24,Ir 36)    177.3579         0.021999   
    318. D(C  30,C  29,C  28,C  27)   -179.6181         0.025502   
    319. D(C  28,C  29,C  24,C  25)     -0.4232         0.021999   
    320. D(C  30,C  29,C  28,H  56)      0.5389         0.025502   
    321. D(N  35,C  30,C  29,C  28)   -177.9217         0.016314   
    322. D(N  35,C  30,C  29,C  24)      2.2432         0.016314   
    323. D(C  31,C  30,C  29,C  28)      2.1259         0.016314   
    324. D(C  31,C  30,C  29,C  24)   -177.7092         0.016314   
    325. D(H  57,C  31,C  30,N  35)   -179.5602         0.025361   
    326. D(H  57,C  31,C  30,C  29)      0.3900         0.025361   
    327. D(C  32,C  31,C  30,N  35)      0.2000         0.025361   
    328. D(C  32,C  31,C  30,C  29)   -179.8498         0.025361   
    329. D(H  58,C  32,C  31,H  57)     -0.1635         0.029399   
    330. D(H  58,C  32,C  31,C  30)   -179.9244         0.029399   
    331. D(C  33,C  32,C  31,H  57)    179.7830         0.029399   
    332. D(C  33,C  32,C  31,C  30)      0.0221         0.029399   
    333. D(H  59,C  33,C  32,H  58)     -0.1237         0.027303   
    334. D(H  59,C  33,C  32,C  31)    179.9297         0.027303   
    335. D(C  34,C  33,C  32,H  58)    179.6841         0.027303   
    336. D(C  34,C  33,C  32,C  31)     -0.2624         0.027303   
    337. D(H  60,C  34,C  33,H  59)     -0.0223         0.029068   
    338. D(H  60,C  34,C  33,C  32)   -179.8320         0.029068   
    339. D(N  35,C  34,C  33,H  59)   -179.8833         0.029068   
    340. D(N  35,C  34,C  33,C  32)      0.3070         0.029068   
    341. D(Ir 36,N  35,C  34,H  60)      0.6021         0.041399   
    342. D(Ir 36,N  35,C  34,C  33)   -179.5322         0.041399   
    343. D(C  30,N  35,C  34,H  60)   -179.9540         0.041399   
    344. D(C  30,N  35,C  34,C  33)     -0.0883         0.041399   
    345. D(Ir 36,N  35,C  30,C  31)    179.3437         0.034337   
    346. D(Ir 36,N  35,C  30,C  29)     -0.6111         0.034337   
    347. D(C  34,N  35,C  30,C  31)     -0.1684         0.034337   
    348. D(C  34,N  35,C  30,C  29)    179.8768         0.034337   
    349. D(C  24,Ir 36,N  35,C  34)    178.7892         0.001695   
    350. D(N  19,Ir 36,N  35,C  34)    -93.0854         0.001695   
    351. D(N  19,Ir 36,N  35,C  30)     87.4446         0.001695   
    352. D(C  15,Ir 36,N  35,C  34)   -135.6682         0.001695   
    353. D(C  15,Ir 36,N  35,C  30)     44.8618         0.001695   
    354. D(N  11,Ir 36,N  35,C  34)      3.0156         0.001695   
    355. D(N  11,Ir 36,N  35,C  30)   -176.4544         0.001695   
    356. D(C   4,Ir 36,N  35,C  34)     82.8537         0.001695   
    357. D(N  35,Ir 36,C  24,C  29)      1.8535         0.001984   
    358. D(N  35,Ir 36,C  24,C  25)    179.3047         0.001984   
    359. D(N  19,Ir 36,C  24,C  29)    -93.9020         0.001984   
    360. D(C  15,Ir 36,C  24,C  29)   -173.7342         0.001984   
    361. D(C  15,Ir 36,C  24,C  25)      3.7169         0.001984   
    362. D(N  11,Ir 36,C  24,C  29)     45.0085         0.001984   
    363. D(C   4,Ir 36,C  24,C  29)     89.9471         0.001984   
    364. D(C   4,Ir 36,C  24,C  25)    -92.6018         0.001984   
    365. D(N  35,Ir 36,N  19,C  20)      3.0156         0.001695   
    366. D(N  35,Ir 36,N  19,C  18)   -176.4544         0.001695   
    367. D(C  24,Ir 36,N  19,C  20)     82.8537         0.001695   
    368. D(C  24,Ir 36,N  19,C  18)    -96.6163         0.001695   
    369. D(C  15,Ir 36,N  19,C  20)    178.7892         0.001695   
    370. D(N  11,Ir 36,N  19,C  20)    -93.0854         0.001695   
    371. D(N  11,Ir 36,N  19,C  18)     87.4446         0.001695   
    372. D(C   4,Ir 36,N  19,C  20)   -135.6682         0.001695   
    373. D(C   4,Ir 36,N  19,C  18)     44.8618         0.001695   
    374. D(N  35,Ir 36,C  15,C  16)     45.0085         0.001984   
    375. D(N  35,Ir 36,C  15,C  14)   -137.5404         0.001984   
    376. D(C  24,Ir 36,C  15,C  16)     89.9471         0.001984   
    377. D(C  24,Ir 36,C  15,C  14)    -92.6018         0.001984   
    378. D(N  19,Ir 36,C  15,C  16)      1.8535         0.001984   
    379. D(N  19,Ir 36,C  15,C  14)    179.3047         0.001984   
    380. D(N  11,Ir 36,C  15,C  16)    -93.9020         0.001984   
    381. D(N  11,Ir 36,C  15,C  14)     83.5491         0.001984   
    382. D(C  15,Ir 36,N  19,C  18)     -0.6808         0.001695   
    383. D(C   4,Ir 36,C  15,C  16)   -173.7342         0.001984   
    384. D(C   4,Ir 36,C  15,C  14)      3.7169         0.001984   
    385. D(N  35,Ir 36,N  11,C  10)    -93.0854         0.001695   
    386. D(N  35,Ir 36,N  11,C   6)     87.4446         0.001695   
    387. D(C  24,Ir 36,N  11,C  10)   -135.6682         0.001695   
    388. D(C  24,Ir 36,N  11,C   6)     44.8618         0.001695   
    389. D(N  19,Ir 36,N  11,C  10)      3.0156         0.001695   
    390. D(N  11,Ir 36,C  24,C  25)   -137.5404         0.001984   
    391. D(N  19,Ir 36,N  11,C   6)   -176.4544         0.001695   
    392. D(C  15,Ir 36,N  11,C  10)     82.8537         0.001695   
    393. D(C  15,Ir 36,N  11,C   6)    -96.6163         0.001695   
    394. D(N  19,Ir 36,C  24,C  25)     83.5491         0.001984   
    395. D(C   4,Ir 36,N  11,C  10)    178.7892         0.001695   
    396. D(C   4,Ir 36,N  11,C   6)     -0.6808         0.001695   
    397. D(N  35,Ir 36,C   4,C   5)     83.5491         0.001984   
    398. D(C   4,Ir 36,N  35,C  30)    -96.6163         0.001695   
    399. D(N  35,Ir 36,C   4,C   3)    -93.9020         0.001984   
    400. D(C  24,Ir 36,C   4,C   5)      3.7169         0.001984   
    401. D(C  24,Ir 36,C   4,C   3)   -173.7342         0.001984   
    402. D(N  19,Ir 36,C   4,C   5)   -137.5404         0.001984   
    403. D(N  19,Ir 36,C   4,C   3)     45.0085         0.001984   
    404. D(C  15,Ir 36,C   4,C   5)    -92.6018         0.001984   
    405. D(C  15,Ir 36,C   4,C   3)     89.9471         0.001984   
    406. D(C  24,Ir 36,N  35,C  30)     -0.6808         0.001695   
    407. D(N  11,Ir 36,C   4,C   5)    179.3047         0.001984   
    408. D(N  11,Ir 36,C   4,C   3)      1.8535         0.001984   
    -----------------------------------------------------------------

Number of atoms                         .... 61
Number of degrees of freedom            .... 408

         *************************************************************
         *                GEOMETRY OPTIMIZATION CYCLE   1            *
         *************************************************************
---------------------------------
CARTESIAN COORDINATES (ANGSTROEM)
---------------------------------
  C      3.393896   -0.289567    2.776305
  C      4.076284   -1.374300    2.244247
  C      3.562789   -2.026287    1.144617
  C      2.365195   -1.600441    0.563699
  C      1.656921   -0.490717    1.087023
  C      2.209908    0.138317    2.204838
  C      1.779556   -2.262576   -0.593809
  C      2.310999   -3.397127   -1.214621
  C      1.678633   -3.946679   -2.310345
  C      0.513726   -3.353425   -2.779039
  C      0.041133   -2.238328   -2.115943
  N      0.643736   -1.703611   -1.062120
  C     -3.228321   -2.843016    2.244247
  C     -1.947720   -2.794417    2.776305
  C     -0.985168   -1.982995    2.204838
  C     -1.253434   -1.189577    1.087023
  C     -2.568620   -1.248098    0.563699
  C     -3.536210   -2.072322    1.144617
  C     -2.849226   -0.409853   -0.593809
  N     -1.797239    0.294314   -1.062120
  C     -1.959015    1.083542   -2.115943
  C     -3.161015    1.231813   -2.779039
  C     -4.257241    0.519601   -2.310345
  C     -4.097497   -0.302820   -1.214621
  C     -0.403487    1.680294    1.087023
  C     -1.224740    1.844678    2.204838
  C     -1.446176    3.083983    2.776305
  C     -0.847964    4.217316    2.244247
  C     -0.026578    4.098609    1.144617
  C      0.203425    2.848540    0.563699
  C      1.069670    2.672429   -0.593809
  C      1.786499    3.699947   -1.214621
  C      2.578608    3.427079   -2.310345
  C      2.647289    2.121612   -2.779039
  C      1.917882    1.154786   -2.115943
  N      1.153503    1.409297   -1.062120
  Ir     0.000000    0.000000    0.043449
  H      3.792343    0.222163    3.641507
  H      5.002872   -1.707740    2.689140
  H      4.102576   -2.869481    0.738508
  H      1.696641    0.983426    2.641159
  H      3.213679   -3.847263   -0.836342
  H      2.081671   -4.823466   -2.794934
  H     -0.013921   -3.747585   -3.633028
  H     -0.865399   -1.751267   -2.451343
  H     -3.980382   -3.478744    2.689140
  H     -1.703773   -3.395346    3.641507
  H      0.003351   -1.961048    2.641159
  H     -4.536331   -2.118194    0.738508
  H     -1.083943    1.625091   -2.451343
  H     -3.238543    1.885848   -3.633028
  H     -5.218080    0.608953   -2.794934
  H     -4.938667   -0.859496   -0.836342
  H     -1.699993    0.977622    2.641159
  H     -2.088570    3.173184    3.641507
  H     -1.022490    5.186484    2.689140
  H      0.433755    4.987675    0.738508
  H      1.724988    4.706759   -0.836342
  H      3.136408    4.214513   -2.794934
  H      3.252464    1.861736   -3.633028
  H      1.949341    0.126177   -2.451343

----------------------------
CARTESIAN COORDINATES (A.U.)
----------------------------
  NO LB      ZA    FRAG     MASS         X           Y           Z
   0 C     6.0000    0    12.011    6.413534   -0.547202    5.246456
   1 C     6.0000    0    12.011    7.703061   -2.597051    4.241012
   2 C     6.0000    0    12.011    6.732695   -3.829127    2.163013
   3 C     6.0000    0    12.011    4.469571   -3.024396    1.065236
   4 C     6.0000    0    12.011    3.131127   -0.927321    2.054176
   5 C     6.0000    0    12.011    4.176121    0.261381    4.166540
   6 C     6.0000    0    12.011    3.362874   -4.275649   -1.122136
   7 C     6.0000    0    12.011    4.367154   -6.419639   -2.295302
   8 C     6.0000    0    12.011    3.172157   -7.458143   -4.365919
   9 C     6.0000    0    12.011    0.970801   -6.337056   -5.251623
  10 C     6.0000    0    12.011    0.077730   -4.229826   -3.998554
  11 N     7.0000    0    14.007    1.216484   -3.219359   -2.007116
  12 C     6.0000    0    12.011   -6.100642   -5.372521    4.241012
  13 C     6.0000    0    12.011   -3.680658   -5.280682    5.246456
  14 C     6.0000    0    12.011   -1.861698   -3.747318    4.166540
  15 C     6.0000    0    12.011   -2.368647   -2.247975    2.054176
  16 C     6.0000    0    12.011   -4.853989   -2.358564    1.065236
  17 C     6.0000    0    12.011   -6.682469   -3.916121    2.163013
  18 C     6.0000    0    12.011   -5.384257   -0.774510   -1.122136
  19 N     7.0000    0    14.007   -3.396289    0.556173   -2.007116
  20 C     6.0000    0    12.011   -3.702002    2.047597   -3.998554
  21 C     6.0000    0    12.011   -5.973452    2.327789   -5.251623
  22 C     6.0000    0    12.011   -8.045020    0.981903   -4.365919
  23 C     6.0000    0    12.011   -7.743147   -0.572247   -2.295302
  24 C     6.0000    0    12.011   -0.762480    3.175296    2.054176
  25 C     6.0000    0    12.011   -2.314423    3.485937    4.166540
  26 C     6.0000    0    12.011   -2.732876    5.827884    5.246456
  27 C     6.0000    0    12.011   -1.602419    7.969572    4.241012
  28 C     6.0000    0    12.011   -0.050226    7.745248    2.163013
  29 C     6.0000    0    12.011    0.384418    5.382960    1.065236
  30 C     6.0000    0    12.011    2.021384    5.050158   -1.122136
  31 C     6.0000    0    12.011    3.375993    6.991886   -2.295302
  32 C     6.0000    0    12.011    4.872863    6.476240   -4.365919
  33 C     6.0000    0    12.011    5.002650    4.009267   -5.251623
  34 C     6.0000    0    12.011    3.624272    2.182229   -3.998554
  35 N     7.0000    0    14.007    2.179804    2.663186   -2.007116
  36 Ir   17.0000*   0   192.220    0.000000    0.000000    0.082106
  37 H     1.0000    0     1.008    7.166489    0.419826    6.881452
  38 H     1.0000    0     1.008    9.454058   -3.227161    5.081738
  39 H     1.0000    0     1.008    7.752745   -5.422533    1.395577
  40 H     1.0000    0     1.008    3.206188    1.858406    4.991067
  41 H     1.0000    0     1.008    6.072973   -7.270274   -1.580457
  42 H     1.0000    0     1.008    3.933789   -9.115030   -5.281659
  43 H     1.0000    0     1.008   -0.026307   -7.081909   -6.865428
  44 H     1.0000    0     1.008   -1.635366   -3.309416   -4.632366
  45 H     1.0000    0     1.008   -7.521832   -6.573874    5.081738
  46 H     1.0000    0     1.008   -3.219664   -6.416275    6.881452
  47 H     1.0000    0     1.008    0.006333   -3.705843    4.991067
  48 H     1.0000    0     1.008   -8.572424   -4.002807    1.395577
  49 H     1.0000    0     1.008   -2.048355    3.070977   -4.632366
  50 H     1.0000    0     1.008   -6.119959    3.563737   -6.865428
  51 H     1.0000    0     1.008   -9.860742    1.150754   -5.281659
  52 H     1.0000    0     1.008   -9.332728   -1.624211   -1.580457
  53 H     1.0000    0     1.008   -3.212521    1.847437    4.991067
  54 H     1.0000    0     1.008   -3.946825    5.996449    6.881452
  55 H     1.0000    0     1.008   -1.932226    9.801035    5.081738
  56 H     1.0000    0     1.008    0.819679    9.425340    1.395577
  57 H     1.0000    0     1.008    3.259756    8.894486   -1.580457
  58 H     1.0000    0     1.008    5.926953    7.964276   -5.281659
  59 H     1.0000    0     1.008    6.146266    3.518172   -6.865428
  60 H     1.0000    0     1.008    3.683721    0.238439   -4.632366
* core charge reduced due to ECP

--------------------------------
INTERNAL COORDINATES (ANGSTROEM)
--------------------------------
 C      0   0   0     0.000000000000     0.00000000     0.00000000
 C      1   0   0     1.387582806818     0.00000000     0.00000000
 C      2   1   0     1.377661204961   119.51958686     0.00000000
 C      3   2   1     1.397512495945   120.46360077     0.13905681
 C      4   3   2     1.416689409171   120.90191219     0.21007301
 C      1   2   3     1.382564841872   120.30443607   359.74061233
 C      4   3   2     1.456440208194   122.43966585   180.38186890
 C      7   4   3     1.398229141590   124.67553333     2.12585184
 C      8   7   4     1.379313210502   120.11570969   180.15017988
 C      9   8   7     1.388752446137   118.84679739     0.00000000
 C     10   9   8     1.380754537952   118.03555371   359.73761076
 N     11  10   9     1.326497338816   123.47564478     0.30702560
 C     12  11  10     5.217578937158    94.48946966   245.95703720
 C     13  12  11     1.387582806652    63.28437144   150.25634064
 C     14  13  12     1.382564842185   120.30443605    28.15859424
 C     15  14  13     1.396778014207   122.03585876     0.02934438
 C     16  15  14     1.416689410055   116.77310410     0.30599364
 C     13  12  11     1.377661205142    62.47598914   302.41816079
 C     17  16  15     1.456440208145   116.65821322   179.41451653
 N     19  17  16     1.349757302054   115.20421244     2.24320598
 C     20  19  17     1.326497338772   119.40516793   179.87682829
 C     21  20  19     1.380754538271   123.47564480   359.91165535
 C     22  21  20     1.388752446006   118.03555369     0.30702555
 C     23  22  21     1.379313210075   118.84679745   359.73761083
 C     20  19  17     2.912439221572   111.42097233   311.69791241
 C     25  20  19     1.396778014178   111.41852368   338.78333610
 C     26  25  20     1.382564842410   122.03585874   234.23615006
 C     27  26  25     1.387582805696   120.30443605     0.02934440
 C     28  27  26     1.377661205213   119.51958692   359.74061233
 C     29  28  27     1.397512496347   120.46360074     0.13905680
 C     30  29  28     1.456440208238   122.43966586   180.38186889
 C     31  30  29     1.398229142508   124.67553329     2.12585185
 C     32  31  30     1.379313210010   120.11570963   180.15017992
 C     33  32  31     1.388752446701   118.84679743     0.00000000
 C     34  33  32     1.380754537891   118.03555369   359.73761084
 N     35  34  33     1.326497338967   123.47564480     0.30702557
 Ir    16  15  14     2.018721860760   128.98962619   182.91021508
 H      1   2   3     1.081296550258   119.70666554   179.77956305
 H      2   1   3     1.080590727489   120.33470535   180.11961201
 H      3   2   1     1.080403358836   118.89170188   179.98475532
 H      6   1   2     1.080753537508   118.80546517   179.77884186
 H      8   7   4     1.077288282884   120.10709632     0.39001804
 H      9   8   7     1.079824407546   120.58989929   180.07555761
 H     10   9   8     1.078457242624   121.43413408   179.92973251
 H     11  10   9     1.082367586340   120.08399701   180.16804395
 H     13  12  11     1.080590728066   154.94067473    45.27462446
 H     14  13  12     1.081296549805   119.70666551   208.19754489
 H     15  14  13     1.080753537459   118.80546515   179.77884185
 H     18  13  12     1.080403359236   118.89170191   151.34168816
 H     21  20  19     1.082367586584   116.44022235   180.04596364
 H     22  21  20     1.078457242740   120.53003057   180.11671558
 H     23  22  21     1.079824408004   120.56328142   179.68412888
 H     24  23  22     1.077288282907   119.77676127   179.78301807
 H     26  25  20     1.080753537453   119.15821028    54.48750831
 H     27  26  25     1.081296550194   119.98888690   179.99028344
 H     28  27  26     1.080590727997   120.33470534   179.86022436
 H     29  28  27     1.080403358219   118.89170192   179.98475530
 H     32  31  30     1.077288282508   120.10709630     0.39001800
 H     33  32  31     1.079824408111   120.58989925   180.07555764
 H     34  33  32     1.078457242550   121.43413410   179.92973253
 H     35  34  33     1.082367586364   120.08399699   180.16804394

---------------------------
INTERNAL COORDINATES (A.U.)
---------------------------
 C      0   0   0     0.000000000000     0.00000000     0.00000000
 C      1   0   0     2.622151493024     0.00000000     0.00000000
 C      2   1   0     2.603402382704   119.51958686     0.00000000
 C      3   2   1     2.640915886069   120.46360077     0.13905681
 C      4   3   2     2.677155000160   120.90191219     0.21007301
 C      1   2   3     2.612668913526   120.30443607   359.74061233
 C      4   3   2     2.752273123918   122.43966585   180.38186890
 C      7   4   3     2.642270150073   124.67553333     2.12585184
 C      8   7   4     2.606524220749   120.11570969   180.15017988
 C      9   8   7     2.624361791013   118.84679739     0.00000000
 C     10   9   8     2.609247934897   118.03555371   359.73761076
 N     11  10   9     2.506716687738   123.47564478     0.30702560
 C     12  11  10     9.859795273344    94.48946966   245.95703720
 C     13  12  11     2.622151492709    63.28437144   150.25634064
 C     14  13  12     2.612668914118   120.30443605    28.15859424
 C     15  14  13     2.639527916734   122.03585876     0.02934438
 C     16  15  14     2.677155001830   116.77310410     0.30599364
 C     13  12  11     2.603402383046    62.47598914   302.41816079
 C     17  16  15     2.752273123825   116.65821322   179.41451653
 N     19  17  16     2.550671648143   115.20421244     2.24320598
 C     20  19  17     2.506716687654   119.40516793   179.87682829
 C     21  20  19     2.609247935501   123.47564480   359.91165535
 C     22  21  20     2.624361790764   118.03555369     0.30702555
 C     23  22  21     2.606524219942   118.84679745   359.73761083
 C     20  19  17     5.503712510462   111.42097233   311.69791241
 C     25  20  19     2.639527916678   111.41852368   338.78333610
 C     26  25  20     2.612668914542   122.03585874   234.23615006
 C     27  26  25     2.622151490904   120.30443605     0.02934440
 C     28  27  26     2.603402383181   119.51958692   359.74061233
 C     29  28  27     2.640915886828   120.46360074     0.13905680
 C     30  29  28     2.752273124000   122.43966586   180.38186889
 C     31  30  29     2.642270151808   124.67553329     2.12585185
 C     32  31  30     2.606524219819   120.11570963   180.15017992
 C     33  32  31     2.624361792078   118.84679743     0.00000000
 C     34  33  32     2.609247934783   118.03555369   359.73761084
 N     35  34  33     2.506716688023   123.47564480     0.30702557
 Ir    16  15  14     3.814831457395   128.98962619   182.91021508
 H      1   2   3     2.043354349541   119.70666554   179.77956305
 H      2   1   3     2.042020537809   120.33470535   180.11961201
 H      3   2   1     2.041666462368   118.89170188   179.98475532
 H      6   1   2     2.042328204157   118.80546517   179.77884186
 H      8   7   4     2.035779821933   120.10709632     0.39001804
 H      9   8   7     2.040572402985   120.58989929   180.07555761
 H     10   9   8     2.037988835702   121.43413408   179.92973251
 H     11  10   9     2.045378314416   120.08399701   180.16804395
 H     13  12  11     2.042020538900   154.94067473    45.27462446
 H     14  13  12     2.043354348685   119.70666551   208.19754489
 H     15  14  13     2.042328204064   118.80546515   179.77884185
 H     18  13  12     2.041666463124   118.89170191   151.34168816
 H     21  20  19     2.045378314877   116.44022235   180.04596364
 H     22  21  20     2.037988835923   120.53003057   180.11671558
 H     23  22  21     2.040572403851   120.56328142   179.68412888
 H     24  23  22     2.035779821976   119.77676127   179.78301807
 H     26  25  20     2.042328204053   119.15821028    54.48750831
 H     27  26  25     2.043354349421   119.98888690   179.99028344
 H     28  27  26     2.042020538769   120.33470534   179.86022436
 H     29  28  27     2.041666461203   118.89170192   179.98475530
 H     32  31  30     2.035779821222   120.10709630     0.39001800
 H     33  32  31     2.040572404053   120.58989925   180.07555764
 H     34  33  32     2.037988835564   121.43413410   179.92973253
 H     35  34  33     2.045378314462   120.08399699   180.16804394

---------------------
BASIS SET INFORMATION
---------------------
There are 4 groups of distinct atoms

 Group   1 Type C   : 11s6p2d1f contracted to 5s3p2d1f pattern {62111/411/11/1}
 Group   2 Type N   : 11s6p2d1f contracted to 5s3p2d1f pattern {62111/411/11/1}
 Group   3 Type Ir  : 8s7p6d1f contracted to 6s4p3d1f pattern {311111/4111/411/1}
 Group   4 Type H   : 5s1p contracted to 3s1p pattern {311/1}

Atom   0C    basis set group =>   1
Atom   1C    basis set group =>   1
Atom   2C    basis set group =>   1
Atom   3C    basis set group =>   1
Atom   4C    basis set group =>   1
Atom   5C    basis set group =>   1
Atom   6C    basis set group =>   1
Atom   7C    basis set group =>   1
Atom   8C    basis set group =>   1
Atom   9C    basis set group =>   1
Atom  10C    basis set group =>   1
Atom  11N    basis set group =>   2
Atom  12C    basis set group =>   1
Atom  13C    basis set group =>   1
Atom  14C    basis set group =>   1
Atom  15C    basis set group =>   1
Atom  16C    basis set group =>   1
Atom  17C    basis set group =>   1
Atom  18C    basis set group =>   1
Atom  19N    basis set group =>   2
Atom  20C    basis set group =>   1
Atom  21C    basis set group =>   1
Atom  22C    basis set group =>   1
Atom  23C    basis set group =>   1
Atom  24C    basis set group =>   1
Atom  25C    basis set group =>   1
Atom  26C    basis set group =>   1
Atom  27C    basis set group =>   1
Atom  28C    basis set group =>   1
Atom  29C    basis set group =>   1
Atom  30C    basis set group =>   1
Atom  31C    basis set group =>   1
Atom  32C    basis set group =>   1
Atom  33C    basis set group =>   1
Atom  34C    basis set group =>   1
Atom  35N    basis set group =>   2
Atom  36Ir   basis set group =>   3
Atom  37H    basis set group =>   4
Atom  38H    basis set group =>   4
Atom  39H    basis set group =>   4
Atom  40H    basis set group =>   4
Atom  41H    basis set group =>   4
Atom  42H    basis set group =>   4
Atom  43H    basis set group =>   4
Atom  44H    basis set group =>   4
Atom  45H    basis set group =>   4
Atom  46H    basis set group =>   4
Atom  47H    basis set group =>   4
Atom  48H    basis set group =>   4
Atom  49H    basis set group =>   4
Atom  50H    basis set group =>   4
Atom  51H    basis set group =>   4
Atom  52H    basis set group =>   4
Atom  53H    basis set group =>   4
Atom  54H    basis set group =>   4
Atom  55H    basis set group =>   4
Atom  56H    basis set group =>   4
Atom  57H    basis set group =>   4
Atom  58H    basis set group =>   4
Atom  59H    basis set group =>   4
Atom  60H    basis set group =>   4
---------------------------------
AUXILIARY/J BASIS SET INFORMATION
---------------------------------
There are 4 groups of distinct atoms

 Group   1 Type C   : 12s5p4d2f1g contracted to 6s4p3d1f1g pattern {711111/2111/211/2/1}
 Group   2 Type N   : 12s5p4d2f1g contracted to 6s4p3d1f1g pattern {711111/2111/211/2/1}
 Group   3 Type Ir  : 11s5p5d3f3g contracted to 8s5p5d2f3g pattern {41111111/11111/11111/21/111}
 Group   4 Type H   : 5s2p1d contracted to 3s1p1d pattern {311/2/1}

Atom   0C    basis set group =>   1
Atom   1C    basis set group =>   1
Atom   2C    basis set group =>   1
Atom   3C    basis set group =>   1
Atom   4C    basis set group =>   1
Atom   5C    basis set group =>   1
Atom   6C    basis set group =>   1
Atom   7C    basis set group =>   1
Atom   8C    basis set group =>   1
Atom   9C    basis set group =>   1
Atom  10C    basis set group =>   1
Atom  11N    basis set group =>   2
Atom  12C    basis set group =>   1
Atom  13C    basis set group =>   1
Atom  14C    basis set group =>   1
Atom  15C    basis set group =>   1
Atom  16C    basis set group =>   1
Atom  17C    basis set group =>   1
Atom  18C    basis set group =>   1
Atom  19N    basis set group =>   2
Atom  20C    basis set group =>   1
Atom  21C    basis set group =>   1
Atom  22C    basis set group =>   1
Atom  23C    basis set group =>   1
Atom  24C    basis set group =>   1
Atom  25C    basis set group =>   1
Atom  26C    basis set group =>   1
Atom  27C    basis set group =>   1
Atom  28C    basis set group =>   1
Atom  29C    basis set group =>   1
Atom  30C    basis set group =>   1
Atom  31C    basis set group =>   1
Atom  32C    basis set group =>   1
Atom  33C    basis set group =>   1
Atom  34C    basis set group =>   1
Atom  35N    basis set group =>   2
Atom  36Ir   basis set group =>   3
Atom  37H    basis set group =>   4
Atom  38H    basis set group =>   4
Atom  39H    basis set group =>   4
Atom  40H    basis set group =>   4
Atom  41H    basis set group =>   4
Atom  42H    basis set group =>   4
Atom  43H    basis set group =>   4
Atom  44H    basis set group =>   4
Atom  45H    basis set group =>   4
Atom  46H    basis set group =>   4
Atom  47H    basis set group =>   4
Atom  48H    basis set group =>   4
Atom  49H    basis set group =>   4
Atom  50H    basis set group =>   4
Atom  51H    basis set group =>   4
Atom  52H    basis set group =>   4
Atom  53H    basis set group =>   4
Atom  54H    basis set group =>   4
Atom  55H    basis set group =>   4
Atom  56H    basis set group =>   4
Atom  57H    basis set group =>   4
Atom  58H    basis set group =>   4
Atom  59H    basis set group =>   4
Atom  60H    basis set group =>   4
-------------------------
ECP PARAMETER INFORMATION
-------------------------

 Group 1, Type Ir ECP Def2-ECP (replacing 60 core electrons, lmax=3)

Atom  36Ir   ECP group =>   1



           ************************************************************
           *        Program running with 8 parallel MPI-processes     *
           *              working on a common directory               *
           ************************************************************
------------------------------------------------------------------------------
                           ORCA GTO INTEGRAL CALCULATION
                           -- RI-GTO INTEGRALS CHOSEN --
------------------------------------------------------------------------------
------------------------------------------------------------------------------
                   ___                                                        
                  /   \      - P O W E R E D   B Y -                         
                 /     \                                                     
                 |  |  |   _    _      __       _____    __    __             
                 |  |  |  | |  | |    /  \     |  _  \  |  |  /  |          
                  \  \/   | |  | |   /    \    | | | |  |  | /  /          
                 / \  \   | |__| |  /  /\  \   | |_| |  |  |/  /          
                |  |  |   |  __  | /  /__\  \  |    /   |      \           
                |  |  |   | |  | | |   __   |  |    \   |  |\   \          
                \     /   | |  | | |  |  |  |  | |\  \  |  | \   \       
                 \___/    |_|  |_| |__|  |__|  |_| \__\ |__|  \__/        
                                                                              
                      - O R C A' S   B I G   F R I E N D -                    
                                      &                                       
                       - I N T E G R A L  F E E D E R -                       
                                                                              
 v1 FN, 2020, v2 2021                                                         
------------------------------------------------------------------------------


Reading SHARK input file s0_opt.SHARKINP.tmp ... ok
----------------------
SHARK INTEGRAL PACKAGE
----------------------

Number of atoms                             ...     61
Number of basis functions                   ...   1300
Number of shells                            ...    506
Maximum angular momentum                    ...      3
Integral batch strategy                     ... SHARK/LIBINT Hybrid
RI-J (if used) integral strategy            ... SPLIT-RIJ (Revised 2003 algorithm where possible)
Printlevel                                  ...      1
Contraction scheme used                     ... SEGMENTED contraction
Coulomb Range Separation                    ... NOT USED
Exchange Range Separation                   ... NOT USED
Finite Nucleus Model                        ... NOT USED
Auxiliary Coulomb fitting basis             ... AVAILABLE
   # of basis functions in Aux-J            ...   2117
   # of shells in Aux-J                     ...    683
   Maximum angular momentum in Aux-J        ...      4
Auxiliary J/K fitting basis                 ... NOT available
Auxiliary Correlation fitting basis         ... NOT available
Auxiliary 'external' fitting basis          ... NOT available
Integral threshold                          ...     2.500000e-11
Primitive cut-off                           ...     2.500000e-12
Primitive pair pre-selection threshold      ...     2.500000e-12

Calculating pre-screening integrals         ... done (  0.2 sec) Dimension = 506
Organizing shell pair data                  ... done (  1.3 sec)
Shell pair information
Total number of shell pairs                 ...    128271
Shell pairs after pre-screening             ...     85759
Total number of primitive shell pairs       ...    393820
Primitive shell pairs kept                  ...    165450
          la=0 lb=0:  21159 shell pairs
          la=1 lb=0:  24637 shell pairs
          la=1 lb=1:   7179 shell pairs
          la=2 lb=0:  12456 shell pairs
          la=2 lb=1:   7401 shell pairs
          la=2 lb=2:   1967 shell pairs
          la=3 lb=0:   5501 shell pairs
          la=3 lb=1:   3381 shell pairs
          la=3 lb=2:   1699 shell pairs
          la=3 lb=3:    379 shell pairs

Calculating one electron integrals          ... done (  0.3 sec)
Calculating ECP integrals                   ... done (  7.6 sec)
Calculating RI/J V-Matrix + Cholesky decomp.... done (  2.0 sec)
Calculating Nuclear repulsion               ... done (  0.0 sec) ENN=   4307.724674716711 Eh

SHARK setup successfully completed in  15.1 seconds

Maximum memory used throughout the entire GTOINT-calculation: 126.6 MB


           ************************************************************
           *        Program running with 8 parallel MPI-processes     *
           *              working on a common directory               *
           ************************************************************
-------------------------------------------------------------------------------
                                 ORCA SCF
-------------------------------------------------------------------------------

------------
SCF SETTINGS
------------
Hamiltonian:
 Density Functional     Method          .... DFT(GTOs)
 Exchange Functional    Exchange        .... B88
   X-Alpha parameter    XAlpha          ....  0.666667
   Becke's b parameter  XBeta           ....  0.004200
 Correlation Functional Correlation     .... LYP
 LDA part of GGA corr.  LDAOpt          .... VWN-5
 Gradients option       PostSCFGGA      .... off
 Hybrid DFT is turned on
   Fraction HF Exchange ScalHFX         ....  0.200000
   Scaling of DF-GGA-X  ScalDFX         ....  0.720000
   Scaling of DF-GGA-C  ScalDFC         ....  0.810000
   Scaling of DF-LDA-C  ScalLDAC        ....  1.000000
   Perturbative correction              ....  0.000000
   Density functional embedding theory  .... OFF
   NL short-range parameter             ....  4.800000
 RI-approximation to the Coulomb term is turned on
   Number of AuxJ basis functions       .... 2117
   RIJ-COSX (HFX calculated with COS-X)).... on


General Settings:
 Integral files         IntName         .... s0_opt
 Hartree-Fock type      HFTyp           .... RHF
 Total Charge           Charge          ....    0
 Multiplicity           Mult            ....    1
 Number of Electrons    NEL             ....  260
 Basis Dimension        Dim             .... 1300
 Nuclear Repulsion      ENuc            ....   4307.7246747167 Eh

Convergence Acceleration:
 DIIS                   CNVDIIS         .... on
   Start iteration      DIISMaxIt       ....    12
   Startup error        DIISStart       ....  0.200000
   # of expansion vecs  DIISMaxEq       ....     5
   Bias factor          DIISBfac        ....   1.050
   Max. coefficient     DIISMaxC        ....  10.000
 Trust-Rad. Augm. Hess. CNVTRAH         .... auto
   Auto Start mean grad. ratio tolernc. ....  1.125000
   Auto Start start iteration           ....    20
   Auto Start num. interpolation iter.  ....    10
   Max. Number of Micro iterations      ....    16
   Max. Number of Macro iterations      .... Maxiter - #DIIS iter
   Number of Davidson start vectors     ....     2
   Converg. threshold I  (grad. norm)   ....   1.000e-05
   Converg. threshold II (energy diff.) ....   1.000e-08
   Grad. Scal. Fac. for Micro threshold ....   0.100
   Minimum threshold for Micro iter.    ....   0.010
   NR start threshold (gradient norm)   ....   0.001
   Initial trust radius                 ....   0.400
   Minimum AH scaling param. (alpha)    ....   1.000
   Maximum AH scaling param. (alpha)    .... 1000.000
   Orbital update algorithm             .... Taylor
   White noise on init. David. guess    .... on
   Maximum white noise                  ....   0.010
   Quad. conv. algorithm                .... NR
 SOSCF                  CNVSOSCF        .... off
 Level Shifting         CNVShift        .... on
   Level shift para.    LevelShift      ....    0.2500
   Turn off err/grad.   ShiftErr        ....    0.0010
 Zerner damping         CNVZerner       .... off
 Static damping         CNVDamp         .... on
   Fraction old density DampFac         ....    0.7000
   Max. Damping (<1)    DampMax         ....    0.9800
   Min. Damping (>=0)   DampMin         ....    0.0000
   Turn off err/grad.   DampErr         ....    0.1000
 Fernandez-Rico         CNVRico         .... off

SCF Procedure:
 Maximum # iterations   MaxIter         ....   125
 SCF integral mode      SCFMode         .... Direct
   Integral package                     .... SHARK and LIBINT hybrid scheme
 Reset frequency        DirectResetFreq ....    20
 Integral Threshold     Thresh          ....  2.500e-11 Eh
 Primitive CutOff       TCut            ....  2.500e-12 Eh

Convergence Tolerance:
 Convergence Check Mode ConvCheckMode   .... Total+1el-Energy
 Convergence forced     ConvForced      .... 0
 Energy Change          TolE            ....  1.000e-08 Eh
 1-El. energy change                    ....  1.000e-05 Eh
 DIIS Error             TolErr          ....  5.000e-07


Diagonalization of the overlap matrix:
Smallest eigenvalue                        ... 5.046e-06
Time for diagonalization                   ...    0.354 sec
Threshold for overlap eigenvalues          ... 1.000e-08
Number of eigenvalues below threshold      ... 0
Time for construction of square roots      ...    0.296 sec
Total time needed                          ...    0.664 sec

Time for model grid setup =    1.196 sec

------------------------------
INITIAL GUESS: MODEL POTENTIAL
------------------------------
Loading Hartree-Fock densities                     ... done
  calling /cvmfs/restricted.computecanada.ca/easybuild/software/2020/avx2/MPI/gcc10/openmpi4/orca/5.0.2/orca s0_opt_atom77.inp > s0_opt_atom77.out in order to generate an atomic fitting density for atom 36 (Ir with ECP) on-the-fly... 
    atom 36 (Ir), assumed electronic state with S=4: 1s2 2s2 2p6 3s2 3p6 4s2 3d10 4p6 5s2 4d10 5p6 6s2 4f14 5d7           ... done
Calculating cut-offs                               ... done
Initializing the effective Hamiltonian             ... done
Setting up the integral package (SHARK)            ... done
Starting the Coulomb interaction                   ... done (   3.7 sec)
Reading the grid                                   ... done
Mapping shells                                     ... done
Starting the XC term evaluation                    ... done (   1.6 sec)
  promolecular density results
     # of electrons  =    320.008276728
     EX              =   -547.301912258
     EC              =    -12.463014070
     EX+EC           =   -559.764926328
Transforming the Hamiltonian                       ... done (   0.2 sec)
Diagonalizing the Hamiltonian                      ... done (   0.3 sec)
Back transforming the eigenvectors                 ... done (   0.1 sec)
Now organizing SCF variables                       ... done
                      ------------------
                      INITIAL GUESS DONE (  24.6 sec)
                      ------------------
-------------------
DFT GRID GENERATION
-------------------

General Integration Accuracy     IntAcc      ... 4.388
Radial Grid Type                 RadialGrid  ... OptM3 with GC (2021)
Angular Grid (max. ang.)         AngularGrid ... 4 (Lebedev-302)
Angular grid pruning method      GridPruning ... 4 (adaptive)
Weight generation scheme         WeightScheme... Becke
Basis function cutoff            BFCut       ... 1.0000e-11
Integration weight cutoff        WCut        ... 1.0000e-14
Angular grids for H and He will be reduced by one unit
Partially contracted basis set               ... off
Rotationally invariant grid construction     ... off

Total number of grid points                  ...   299397
Total number of batches                      ...     4711
Average number of points per batch           ...       63
Average number of grid points per atom       ...     4908
Time for grid setup =    4.265 sec

--------------------
COSX GRID GENERATION
--------------------

GRIDX 1
-------
General Integration Accuracy     IntAcc      ... 3.816
Radial Grid Type                 RadialGrid  ... OptM3 with GC (2021)
Angular Grid (max. ang.)         AngularGrid ... 1 (Lebedev-50)
Angular grid pruning method      GridPruning ... 4 (adaptive)
Weight generation scheme         WeightScheme... Becke
Basis function cutoff            BFCut       ... 1.0000e-11
Integration weight cutoff        WCut        ... 1.0000e-14
Angular grids for H and He will be reduced by one unit
Partially contracted basis set               ... on
Rotationally invariant grid construction     ... off

Total number of grid points                  ...    37661
Total number of batches                      ...      610
Average number of points per batch           ...       61
Average number of grid points per atom       ...      617
UseSFitting                                  ... on

GRIDX 2
-------
General Integration Accuracy     IntAcc      ... 4.020
Radial Grid Type                 RadialGrid  ... OptM3 with GC (2021)
Angular Grid (max. ang.)         AngularGrid ... 2 (Lebedev-110)
Angular grid pruning method      GridPruning ... 4 (adaptive)
Weight generation scheme         WeightScheme... Becke
Basis function cutoff            BFCut       ... 1.0000e-11
Integration weight cutoff        WCut        ... 1.0000e-14
Angular grids for H and He will be reduced by one unit
Partially contracted basis set               ... on
Rotationally invariant grid construction     ... off

Total number of grid points                  ...    82292
Total number of batches                      ...     1318
Average number of points per batch           ...       62
Average number of grid points per atom       ...     1349
UseSFitting                                  ... on

GRIDX 3
-------
General Integration Accuracy     IntAcc      ... 4.338
Radial Grid Type                 RadialGrid  ... OptM3 with GC (2021)
Angular Grid (max. ang.)         AngularGrid ... 3 (Lebedev-194)
Angular grid pruning method      GridPruning ... 4 (adaptive)
Weight generation scheme         WeightScheme... Becke
Basis function cutoff            BFCut       ... 1.0000e-11
[...]
      px      :     0.938070
      py      :     0.996233
      dz2     :     0.088549  d :     0.389731
      dxz     :     0.054349
      dyz     :     0.103446
      dx2y2   :     0.058301
      dxy     :     0.085087
      f0      :     0.005883  f :     0.043102
      f+1     :     0.004929
      f-1     :     0.008265
      f+2     :     0.005729
      f-2     :     0.007709
      f+3     :     0.005925
      f-3     :     0.004661
 29 C s       :     2.693267  s :     2.693267
      pz      :     0.927022  p :     2.869676
      px      :     0.909657
      py      :     1.032997
      dz2     :     0.102185  d :     0.514015
      dxz     :     0.074368
      dyz     :     0.119427
      dx2y2   :     0.117658
      dxy     :     0.100378
      f0      :     0.005768  f :     0.056541
      f+1     :     0.004934
      f-1     :     0.013000
      f+2     :     0.006526
      f-2     :     0.010292
      f+3     :     0.006877
      f-3     :     0.009144
 30 C s       :     2.699684  s :     2.699684
      pz      :     0.918135  p :     2.755394
      px      :     0.888036
      py      :     0.949223
      dz2     :     0.126407  d :     0.607256
      dxz     :     0.074294
      dyz     :     0.142740
      dx2y2   :     0.140907
      dxy     :     0.122908
      f0      :     0.007528  f :     0.076803
      f+1     :     0.005216
      f-1     :     0.017584
      f+2     :     0.010493
      f-2     :     0.011435
      f+3     :     0.012362
      f-3     :     0.012185
 31 C s       :     2.756186  s :     2.756186
      pz      :     0.988188  p :     2.931142
      px      :     0.949976
      py      :     0.992978
      dz2     :     0.074841  d :     0.366253
      dxz     :     0.061036
      dyz     :     0.095384
      dx2y2   :     0.080703
      dxy     :     0.054290
      f0      :     0.005560  f :     0.042806
      f+1     :     0.005805
      f-1     :     0.007225
      f+2     :     0.006184
      f-2     :     0.007568
      f+3     :     0.004544
      f-3     :     0.005919
 32 C s       :     2.766569  s :     2.766569
      pz      :     0.975007  p :     2.907768
      px      :     0.909851
      py      :     1.022910
      dz2     :     0.076107  d :     0.392327
      dxz     :     0.049956
      dyz     :     0.116154
      dx2y2   :     0.058776
      dxy     :     0.091334
      f0      :     0.006544  f :     0.044503
      f+1     :     0.005018
      f-1     :     0.007619
      f+2     :     0.006722
      f-2     :     0.006623
      f+3     :     0.007222
      f-3     :     0.004757
 33 C s       :     2.766822  s :     2.766822
      pz      :     0.962624  p :     2.961107
      px      :     0.941482
      py      :     1.057001
      dz2     :     0.059185  d :     0.372459
      dxz     :     0.046055
      dyz     :     0.093873
      dx2y2   :     0.085249
      dxy     :     0.088097
      f0      :     0.002813  f :     0.043837
      f+1     :     0.003617
      f-1     :     0.009591
      f+2     :     0.006721
      f-2     :     0.007019
      f+3     :     0.007353
      f-3     :     0.006724
 34 C s       :     2.767332  s :     2.767332
      pz      :     0.927708  p :     2.857490
      px      :     0.914734
      py      :     1.015047
      dz2     :     0.114089  d :     0.484030
      dxz     :     0.096099
      dyz     :     0.106964
      dx2y2   :     0.106194
      dxy     :     0.060683
      f0      :     0.009284  f :     0.062624
      f+1     :     0.010392
      f-1     :     0.010273
      f+2     :     0.009264
      f-2     :     0.010508
      f+3     :     0.005459
      f-3     :     0.007444
 35 N s       :     2.960556  s :     2.960556
      pz      :     1.170129  p :     3.568748
      px      :     1.162243
      py      :     1.236376
      dz2     :     0.055751  d :     0.260405
      dxz     :     0.038821
      dyz     :     0.067052
      dx2y2   :     0.049456
      dxy     :     0.049325
      f0      :     0.002572  f :     0.018736
      f+1     :     0.002350
      f-1     :     0.003424
      f+2     :     0.002798
      f-2     :     0.002601
      f+3     :     0.002667
      f-3     :     0.002324
 36 Irs       :     2.244656  s :     2.244656
      pz      :     2.164849  p :     6.485426
      px      :     2.160222
      py      :     2.160355
      dz2     :     1.835772  d :     7.630859
      dxz     :     1.372723
      dyz     :     1.376658
      dx2y2   :     1.525650
      dxy     :     1.520056
      f0      :     0.011687  f :     0.074954
      f+1     :     0.004457
      f-1     :     0.004400
      f+2     :     0.016934
      f-2     :     0.016949
      f+3     :     0.011794
      f-3     :     0.008734
 37 H s       :     0.797633  s :     0.797633
      pz      :     0.026659  p :     0.058520
      px      :     0.014548
      py      :     0.017313
 38 H s       :     0.797881  s :     0.797881
      pz      :     0.016574  p :     0.059259
      px      :     0.028280
      py      :     0.014404
 39 H s       :     0.792774  s :     0.792774
      pz      :     0.015070  p :     0.059910
      px      :     0.017713
      py      :     0.027127
 40 H s       :     0.791116  s :     0.791116
      pz      :     0.014805  p :     0.059806
      px      :     0.017689
      py      :     0.027311
 41 H s       :     0.782927  s :     0.782927
      pz      :     0.015348  p :     0.060931
      px      :     0.029482
      py      :     0.016101
 42 H s       :     0.786203  s :     0.786203
      pz      :     0.016045  p :     0.058844
      px      :     0.014759
      py      :     0.028040
 43 H s       :     0.785792  s :     0.785792
      pz      :     0.027485  p :     0.060100
      px      :     0.017571
      py      :     0.015045
 44 H s       :     0.786191  s :     0.786191
      pz      :     0.012761  p :     0.060297
      px      :     0.030552
      py      :     0.016985
 45 H s       :     0.797906  s :     0.797906
      pz      :     0.016696  p :     0.059255
      px      :     0.022508
      py      :     0.020051
 46 H s       :     0.797643  s :     0.797643
      pz      :     0.026739  p :     0.058517
      px      :     0.012448
      py      :     0.019330
 47 H s       :     0.791366  s :     0.791366
      pz      :     0.014718  p :     0.059762
      px      :     0.032361
      py      :     0.012684
 48 H s       :     0.792806  s :     0.792806
      pz      :     0.014984  p :     0.059896
      px      :     0.032167
      py      :     0.012745
 49 H s       :     0.786096  s :     0.786096
      pz      :     0.012751  p :     0.060328
      px      :     0.029866
      py      :     0.017711
 50 H s       :     0.785793  s :     0.785793
      pz      :     0.027731  p :     0.060098
      px      :     0.010846
      py      :     0.021521
 51 H s       :     0.786195  s :     0.786195
      pz      :     0.016112  p :     0.058845
      px      :     0.031072
      py      :     0.011662
 52 H s       :     0.782951  s :     0.782951
      pz      :     0.015372  p :     0.060919
      px      :     0.026523
      py      :     0.019023
 53 H s       :     0.791013  s :     0.791013
      pz      :     0.014702  p :     0.059832
      px      :     0.017535
      py      :     0.027595
 54 H s       :     0.797684  s :     0.797684
      pz      :     0.026858  p :     0.058508
      px      :     0.020487
      py      :     0.011162
 55 H s       :     0.797918  s :     0.797918
      pz      :     0.016743  p :     0.059250
      px      :     0.013451
      py      :     0.029056
 56 H s       :     0.792865  s :     0.792865
      pz      :     0.014977  p :     0.059893
      px      :     0.017497
      py      :     0.027419
 57 H s       :     0.782965  s :     0.782965
      pz      :     0.015289  p :     0.060922
      px      :     0.012702
      py      :     0.032930
 58 H s       :     0.786190  s :     0.786190
      pz      :     0.016226  p :     0.058842
      px      :     0.017929
      py      :     0.024686
 59 H s       :     0.785773  s :     0.785773
      pz      :     0.027726  p :     0.060104
      px      :     0.020280
      py      :     0.012098
 60 H s       :     0.786190  s :     0.786190
      pz      :     0.012703  p :     0.060264
      px      :     0.011224
      py      :     0.036337


                      *****************************
                      * MAYER POPULATION ANALYSIS *
                      *****************************

  NA   - Mulliken gross atomic population
  ZA   - Total nuclear charge
  QA   - Mulliken gross atomic charge
  VA   - Mayer's total valence
  BVA  - Mayer's bonded valence
  FA   - Mayer's free valence

  ATOM       NA         ZA         QA         VA         BVA        FA
  0 C      6.1875     6.0000    -0.1875     3.8994     3.8994    -0.0000
  1 C      6.1299     6.0000    -0.1299     3.8334     3.8334     0.0000
  2 C      6.2803     6.0000    -0.2803     3.9680     3.9680    -0.0000
  3 C      5.8967     6.0000     0.1033     3.6844     3.6844    -0.0000
  4 C      6.2695     6.0000    -0.2695     3.6053     3.6053     0.0000
  5 C      6.0738     6.0000    -0.0738     3.6267     3.6267    -0.0000
  6 C      5.7317     6.0000     0.2683     3.6514     3.6514     0.0000
  7 C      6.2216     6.0000    -0.2216     3.9794     3.9794    -0.0000
  8 C      6.1058     6.0000    -0.1058     3.9142     3.9142     0.0000
  9 C      6.1565     6.0000    -0.1565     3.8736     3.8736     0.0000
 10 C      6.0437     6.0000    -0.0437     3.9171     3.9171     0.0000
 11 N      7.2559     7.0000    -0.2559     3.0122     3.0122     0.0000
 12 C      6.1299     6.0000    -0.1299     3.8341     3.8341     0.0000
 13 C      6.1856     6.0000    -0.1856     3.8966     3.8966    -0.0000
 14 C      6.0779     6.0000    -0.0779     3.6349     3.6349     0.0000
 15 C      6.2566     6.0000    -0.2566     3.6006     3.6006    -0.0000
 16 C      5.9049     6.0000     0.0951     3.6901     3.6901     0.0000
 17 C      6.2803     6.0000    -0.2803     3.9677     3.9677    -0.0000
 18 C      5.7261     6.0000     0.2739     3.6457     3.6457     0.0000
 19 N      7.2586     7.0000    -0.2586     3.0147     3.0147    -0.0000
 20 C      6.0412     6.0000    -0.0412     3.9152     3.9152     0.0000
 21 C      6.1586     6.0000    -0.1586     3.8748     3.8748     0.0000
 22 C      6.1042     6.0000    -0.1042     3.9114     3.9114     0.0000
 23 C      6.2246     6.0000    -0.2246     3.9798     3.9798     0.0000
 24 C      6.2661     6.0000    -0.2661     3.6083     3.6083     0.0000
 25 C      6.0754     6.0000    -0.0754     3.6311     3.6311     0.0000
 26 C      6.1885     6.0000    -0.1885     3.8996     3.8996    -0.0000
 27 C      6.1299     6.0000    -0.1299     3.8337     3.8337    -0.0000
 28 C      6.2796     6.0000    -0.2796     3.9659     3.9659    -0.0000
 29 C      5.8946     6.0000     0.1054     3.6808     3.6808     0.0000
 30 C      5.7340     6.0000     0.2660     3.6573     3.6573     0.0000
 31 C      6.2251     6.0000    -0.2251     3.9812     3.9812     0.0000
 32 C      6.1035     6.0000    -0.1035     3.9109     3.9109     0.0000
 33 C      6.1575     6.0000    -0.1575     3.8730     3.8730    -0.0000
 34 C      6.0427     6.0000    -0.0427     3.9148     3.9148     0.0000
 35 N      7.2556     7.0000    -0.2556     3.0109     3.0109    -0.0000
 36 Ir    16.3070    17.0000     0.6930     4.0013     4.0013    -0.0000
 37 H      0.8755     1.0000     0.1245     0.9689     0.9689    -0.0000
 38 H      0.8744     1.0000     0.1256     0.9691     0.9691     0.0000
 39 H      0.8798     1.0000     0.1202     0.9850     0.9850    -0.0000
 40 H      0.8635     1.0000     0.1365     0.9532     0.9532    -0.0000
 41 H      0.8545     1.0000     0.1455     0.9787     0.9787    -0.0000
 42 H      0.8486     1.0000     0.1514     0.9643     0.9643    -0.0000
 43 H      0.8514     1.0000     0.1486     0.9673     0.9673     0.0000
 44 H      0.8317     1.0000     0.1683     0.9539     0.9539     0.0000
 45 H      0.8746     1.0000     0.1254     0.9691     0.9691    -0.0000
 46 H      0.8754     1.0000     0.1246     0.9687     0.9687     0.0000
 47 H      0.8649     1.0000     0.1351     0.9540     0.9540    -0.0000
 48 H      0.8791     1.0000     0.1209     0.9846     0.9846     0.0000
 49 H      0.8313     1.0000     0.1687     0.9529     0.9529    -0.0000
 50 H      0.8516     1.0000     0.1484     0.9674     0.9674    -0.0000
 51 H      0.8485     1.0000     0.1515     0.9642     0.9642    -0.0000
 52 H      0.8543     1.0000     0.1457     0.9785     0.9785     0.0000
 53 H      0.8638     1.0000     0.1362     0.9532     0.9532    -0.0000
 54 H      0.8757     1.0000     0.1243     0.9689     0.9689    -0.0000
 55 H      0.8747     1.0000     0.1253     0.9691     0.9691     0.0000
 56 H      0.8798     1.0000     0.1202     0.9848     0.9848    -0.0000
 57 H      0.8541     1.0000     0.1459     0.9785     0.9785     0.0000
 58 H      0.8485     1.0000     0.1515     0.9641     0.9641    -0.0000
 59 H      0.8514     1.0000     0.1486     0.9673     0.9673    -0.0000
 60 H      0.8318     1.0000     0.1682     0.9541     0.9541    -0.0000

  Mayer bond orders larger than 0.100000
B(  0-C ,  1-C ) :   1.3403 B(  0-C ,  5-C ) :   1.3981 B(  0-C , 37-H ) :   0.9819 
B(  1-C ,  2-C ) :   1.4446 B(  1-C , 38-H ) :   0.9878 B(  2-C ,  3-C ) :   1.3574 
B(  2-C , 39-H ) :   0.9651 B(  3-C ,  4-C ) :   1.2730 B(  3-C ,  6-C ) :   1.0425 
B(  4-C ,  5-C ) :   1.2206 B(  4-C , 36-Ir) :   0.9572 B(  5-C , 40-H ) :   0.9738 
B(  6-C ,  7-C ) :   1.3804 B(  6-C , 11-N ) :   1.2387 B(  7-C ,  8-C ) :   1.4630 
B(  7-C , 41-H ) :   0.9553 B(  8-C ,  9-C ) :   1.3525 B(  8-C , 42-H ) :   0.9635 
B(  9-C , 10-C ) :   1.4263 B(  9-C , 43-H ) :   0.9730 B( 10-C , 11-N ) :   1.3401 
B( 10-C , 44-H ) :   0.9555 B( 11-N , 36-Ir) :   0.3184 B( 12-C , 13-C ) :   1.3397 
B( 12-C , 17-C ) :   1.4447 B( 12-C , 45-H ) :   0.9880 B( 13-C , 14-C ) :   1.3976 
B( 13-C , 46-H ) :   0.9822 B( 14-C , 15-C ) :   1.2258 B( 14-C , 47-H ) :   0.9748 
B( 15-C , 16-C ) :   1.2729 B( 15-C , 36-Ir) :   0.9568 B( 16-C , 17-C ) :   1.3585 
B( 16-C , 18-C ) :   1.0407 B( 17-C , 48-H ) :   0.9645 B( 18-C , 19-N ) :   1.2376 
B( 18-C , 23-C ) :   1.3799 B( 19-N , 20-C ) :   1.3395 B( 19-N , 36-Ir) :   0.3196 
B( 20-C , 21-C ) :   1.4265 B( 20-C , 49-H ) :   0.9551 B( 21-C , 22-C ) :   1.3517 
B( 21-C , 50-H ) :   0.9739 B( 22-C , 23-C ) :   1.4618 B( 22-C , 51-H ) :   0.9635 
B( 23-C , 52-H ) :   0.9559 B( 24-C , 25-C ) :   1.2234 B( 24-C , 29-C ) :   1.2706 
B( 24-C , 36-Ir) :   0.9575 B( 25-C , 26-C ) :   1.3983 B( 25-C , 53-H ) :   0.9741 
B( 26-C , 27-C ) :   1.3399 B( 26-C , 54-H ) :   0.9825 B( 27-C , 28-C ) :   1.4439 
B( 27-C , 55-H ) :   0.9883 B( 28-C , 29-C ) :   1.3559 B( 28-C , 56-H ) :   0.9651 
B( 29-C , 30-C ) :   1.0430 B( 30-C , 31-C ) :   1.3814 B( 30-C , 35-N ) :   1.2387 
B( 31-C , 32-C ) :   1.4619 B( 31-C , 57-H ) :   0.9554 B( 32-C , 33-C ) :   1.3513 
B( 32-C , 58-H ) :   0.9634 B( 33-C , 34-C ) :   1.4256 B( 33-C , 59-H ) :   0.9735 
B( 34-C , 35-N ) :   1.3397 B( 34-C , 60-H ) :   0.9559 B( 35-N , 36-Ir) :   0.3184 


-------
TIMINGS
-------

Total SCF time: 0 days 0 hours 12 min 50 sec 

Total time                  ....     770.589 sec
Sum of individual times     ....     759.950 sec  ( 98.6%)

Fock matrix formation       ....     734.698 sec  ( 95.3%)
  Split-RI-J                ....      50.092 sec  (  6.8% of F)
  Chain of spheres X        ....     569.058 sec  ( 77.5% of F)
  XC integration            ....      41.257 sec  (  5.6% of F)
    Basis function eval.    ....       6.665 sec  ( 16.2% of XC)
    Density eval.           ....      13.384 sec  ( 32.4% of XC)
    XC-Functional eval.     ....       0.723 sec  (  1.8% of XC)
    XC-Potential eval.      ....       5.672 sec  ( 13.7% of XC)
Diagonalization             ....       4.822 sec  (  0.6%)
Density matrix formation    ....       0.325 sec  (  0.0%)
Population analysis         ....       0.866 sec  (  0.1%)
Initial guess               ....       1.601 sec  (  0.2%)
Orbital Transformation      ....       0.000 sec  (  0.0%)
Orbital Orthonormalization  ....       1.462 sec  (  0.2%)
DIIS solution               ....       5.969 sec  (  0.8%)
Grid generation             ....      11.668 sec  (  1.5%)

Maximum memory used throughout the entire SCF-calculation: 385.0 MB


-------------------------------------------------------------------------------
                          DFT DISPERSION CORRECTION                            
                                                                               
                                 DFTD4 V2.5                                    
-------------------------------------------------------------------------------
The B3LYP functional is recognized
Active option DFTDOPT                   ...         5   

Starting D4
-------------------------   ----------------
Dispersion correction           -0.192367036
-------------------------   ----------------


-------------------------   --------------------
FINAL SINGLE POINT ENERGY     -1540.495625680891
-------------------------   --------------------

                                *** OPTIMIZATION RUN DONE ***

                            ***************************************
                            *     ORCA property calculations      *
                            ***************************************

                                    ---------------------
                                    Active property flags
                                    ---------------------
   (+) Dipole Moment


------------------------------------------------------------------------------
                       ORCA ELECTRIC PROPERTIES CALCULATION
------------------------------------------------------------------------------

Dipole Moment Calculation                       ... on
Quadrupole Moment Calculation                   ... off
Polarizability Calculation                      ... off
GBWName                                         ... s0_opt.gbw
Electron density                                ... s0_opt.scfp
The origin for moment calculation is the CENTER OF MASS  = ( 0.002053, -0.004890 -0.023571)

-------------
DIPOLE MOMENT
-------------
                                X             Y             Z
Electronic contribution:      0.32644      -0.80545      -0.95713
Nuclear contribution   :     -0.33500       0.82173      -3.00219
                        -----------------------------------------
Total Dipole Moment    :     -0.00857       0.01628      -3.95932
                        -----------------------------------------
Magnitude (a.u.)       :      3.95936
Magnitude (Debye)      :     10.06390



--------------------
Rotational spectrum 
--------------------
 
Rotational constants in cm-1:     0.004022     0.004014     0.003353 
Rotational constants in MHz :   120.587035   120.323494   100.534275 

 Dipole components along the rotational axes: 
x,y,z [a.u.] :    -0.018640     0.006123    -3.959315 
x,y,z [Debye]:    -0.047379     0.015563   -10.063779 

 
---------
ORCA_2AIM
---------

basename on input = s0_opt
Check for input file     ... done
Reading the gbw file     ... [file orca_tools/Tool-ORCAData/qcinpdat.cpp, line 2178]: Error: ECPs not supported by ORCA_2AIM


Timings for individual modules:

Sum of individual times         ...     8586.148 sec (= 143.102 min)
GTO integral calculation        ...      134.307 sec (=   2.238 min)   1.6 %
SCF iterations                  ...     6695.445 sec (= 111.591 min)  78.0 %
SCF Gradient evaluation         ...     1748.920 sec (=  29.149 min)  20.4 %
Geometry relaxation             ...        7.476 sec (=   0.125 min)   0.1 %
                             ****ORCA TERMINATED NORMALLY****
TOTAL RUN TIME: 0 days 2 hours 23 minutes 27 seconds 942 msec
