
                                 *****************
                                 * O   R   C   A *
                                 *****************

                                            #,                                       
                                            ###                                      
                                            ####                                     
                                            #####                                    
                                            ######                                   
                                           ########,                                 
                                     ,,################,,,,,                         
                               ,,#################################,,                 
                          ,,##########################################,,             
                       ,#########################################, ''#####,          
                    ,#############################################,,   '####,        
                  ,##################################################,,,,####,       
                ,###########''''           ''''###############################       
              ,#####''   ,,,,##########,,,,          '''####'''          '####       
            ,##' ,,,,###########################,,,                        '##       
           ' ,,###''''                  '''############,,,                           
         ,,##''                                '''############,,,,        ,,,,,,###''
      ,#''                                            '''#######################'''  
     '                                                          ''''####''''         
             ,#######,   #######,   ,#######,      ##                                
            ,#'     '#,  ##    ##  ,#'     '#,    #''#        ######   ,####,        
            ##       ##  ##   ,#'  ##            #'  '#       #        #'  '#        
            ##       ##  #######   ##           ,######,      #####,   #    #        
            '#,     ,#'  ##    ##  '#,     ,#' ,#      #,         ##   #,  ,#        
             '#######'   ##     ##  '#######'  #'      '#     #####' # '####'        



                  #######################################################
                  #                        -***-                        #
                  #          Department of theory and spectroscopy      #
                  #    Directorship and core code : Frank Neese         #
                  #        Max Planck Institute fuer Kohlenforschung    #
                  #                Kaiser Wilhelm Platz 1               #
                  #                 D-45470 Muelheim/Ruhr               #
                  #                      Germany                        #
                  #                                                     #
                  #                  All rights reserved                #
                  #                        -***-                        #
                  #######################################################


                         Program Version 5.0.2 -  RELEASE  -


 With contributions from (in alphabetic order):
   Daniel Aravena         : Magnetic Suceptibility
   Michael Atanasov       : Ab Initio Ligand Field Theory (pilot matlab implementation)
   Alexander A. Auer      : GIAO ZORA, VPT2 properties, NMR spectrum
   Ute Becker             : Parallelization
   Giovanni Bistoni       : ED, misc. LED, open-shell LED, HFLD
   Martin Brehm           : Molecular dynamics
   Dmytro Bykov           : SCF Hessian
   Vijay G. Chilkuri      : MRCI spin determinant printing, contributions to CSF-ICE
   Dipayan Datta          : RHF DLPNO-CCSD density
   Achintya Kumar Dutta   : EOM-CC, STEOM-CC
   Dmitry Ganyushin       : Spin-Orbit,Spin-Spin,Magnetic field MRCI
   Miquel Garcia          : C-PCM and meta-GGA Hessian, CC/C-PCM, Gaussian charge scheme
   Yang Guo               : DLPNO-NEVPT2, F12-NEVPT2, CIM, IAO-localization
   Andreas Hansen         : Spin unrestricted coupled pair/coupled cluster methods
   Benjamin Helmich-Paris : MC-RPA, TRAH-SCF, COSX integrals
   Lee Huntington         : MR-EOM, pCC
   Robert Izsak           : Overlap fitted RIJCOSX, COSX-SCS-MP3, EOM
   Marcus Kettner         : VPT2
   Christian Kollmar      : KDIIS, OOCD, Brueckner-CCSD(T), CCSD density, CASPT2, CASPT2-K
   Simone Kossmann        : Meta GGA functionals, TD-DFT gradient, OOMP2, MP2 Hessian
   Martin Krupicka        : Initial AUTO-CI
   Lucas Lang             : DCDCAS
   Marvin Lechner         : AUTO-CI (C++ implementation), FIC-MRCC
   Dagmar Lenk            : GEPOL surface, SMD
   Dimitrios Liakos       : Extrapolation schemes; Compound Job, initial MDCI parallelization
   Dimitrios Manganas     : Further ROCIS development; embedding schemes
   Dimitrios Pantazis     : SARC Basis sets
   Anastasios Papadopoulos: AUTO-CI, single reference methods and gradients
   Taras Petrenko         : DFT Hessian,TD-DFT gradient, ASA, ECA, R-Raman, ABS, FL, XAS/XES, NRVS
   Peter Pinski           : DLPNO-MP2, DLPNO-MP2 Gradient
   Christoph Reimann      : Effective Core Potentials
   Marius Retegan         : Local ZFS, SOC
   Christoph Riplinger    : Optimizer, TS searches, QM/MM, DLPNO-CCSD(T), (RO)-DLPNO pert. Triples
   Tobias Risthaus        : Range-separated hybrids, TD-DFT gradient, RPA, STAB
   Michael Roemelt        : Original ROCIS implementation
   Masaaki Saitow         : Open-shell DLPNO-CCSD energy and density
   Barbara Sandhoefer     : DKH picture change effects
   Avijit Sen             : IP-ROCIS
   Kantharuban Sivalingam : CASSCF convergence, NEVPT2, FIC-MRCI
   Bernardo de Souza      : ESD, SOC TD-DFT
   Georgi Stoychev        : AutoAux, RI-MP2 NMR, DLPNO-MP2 response
   Willem Van den Heuvel  : Paramagnetic NMR
   Boris Wezisla          : Elementary symmetry handling
   Frank Wennmohs         : Technical directorship


 We gratefully acknowledge several colleagues who have allowed us to
 interface, adapt or use parts of their codes:
   Stefan Grimme, W. Hujo, H. Kruse, P. Pracht,  : VdW corrections, initial TS optimization,
                  C. Bannwarth, S. Ehlert          DFT functionals, gCP, sTDA/sTD-DF
   Ed Valeev, F. Pavosevic, A. Kumar             : LibInt (2-el integral package), F12 methods
   Garnet Chan, S. Sharma, J. Yang, R. Olivares  : DMRG
   Ulf Ekstrom                                   : XCFun DFT Library
   Mihaly Kallay                                 : mrcc  (arbitrary order and MRCC methods)
   Jiri Pittner, Ondrej Demel                    : Mk-CCSD
   Frank Weinhold                                : gennbo (NPA and NBO analysis)
   Christopher J. Cramer and Donald G. Truhlar   : smd solvation model
   Lars Goerigk                                  : TD-DFT with DH, B97 family of functionals
   V. Asgeirsson, H. Jonsson                     : NEB implementation
   FAccTs GmbH                                   : IRC, NEB, NEB-TS, DLPNO-Multilevel, CI-OPT
                                                   MM, QMMM, 2- and 3-layer-ONIOM, Crystal-QMMM,
                                                   LR-CPCM, SF, NACMEs, symmetry and pop. for TD-DFT,
                                                   nearIR, NL-DFT gradient (VV10), updates on ESD,
                                                   ML-optimized integration grids
   S Lehtola, MJT Oliveira, MAL Marques          : LibXC Library
   Liviu Ungur et al                             : ANISO software


 Your calculation uses the libint2 library for the computation of 2-el integrals
 For citations please refer to: http://libint.valeyev.net

 Your ORCA version has been built with support for libXC version: 5.1.0
 For citations please refer to: https://tddft.org/programs/libxc/

 This ORCA versions uses:
   CBLAS   interface :  Fast vector & matrix operations
   LAPACKE interface :  Fast linear algebra routines
   SCALAPACK package :  Parallel linear algebra routines
   Shared memory     :  Shared parallel matrices
   BLAS/LAPACK       :  OpenBLAS 0.3.15  USE64BITINT DYNAMIC_ARCH NO_AFFINITY Haswell SINGLE_THREADED
        Core in use  :  Haswell
   Copyright (c) 2011-2014, The OpenBLAS Project




***************************************
The coordinates will be read from file: s0_opt.xyz
***************************************


================================================================================

----- Orbital basis set information -----
Your calculation utilizes the basis: ZORA-def2-TZVP 
   Exponents from def2-TZVP [F. Weigend and R. Ahlrichs, Phys. Chem. Chem. Phys. 7, 3297 (2005)],
   recontracted for ZORA by D. A. Pantazis.

The basis set includes element-specific modifications.

Your calculation utilizes the basis: SARC-ZORA-TZVP 
   Rb-Xe:  J. D. Rolfes, F. Neese and D. A. Pantazis, J. Comput. Chem. 41, 1842 (2020).
   La-Lu:  D. A. Pantazis and F. Neese, J. Chem. Theory Comput. 5, 2229 (2009).
   Hf-Hg:  D. A. Pantazis, X. Y. Chen, C. R. Landis and F. Neese, J. Chem. Theory Comput. 4, 908 (2008).
   Tl-Rn:  D. A. Pantazis and F. Neese, Theor. Chem. Acc. 131, 1292 (2012).
   Ac-Lr:  D. A. Pantazis and F. Neese, J. Chem. Theory Comput. 7, 677 (2011).

----- AuxJ basis set information -----
Your calculation utilizes the auxiliary basis: SARC/J 
   decontracted def2/J up to Kr:
   F. Weigend, Phys. Chem. Chem. Phys. 8, 1057 (2006)
   and SARC auxiliary basis sets beyond Kr:
   D. A. Pantazis and F. Neese, J. Chem. Theory Comput. 5, 2229 (2009).
   D. A. Pantazis, X. Y. Chen, C. R. Landis and F. Neese, J. Chem. Theory Comput. 4, 908 (2008).
   D. A. Pantazis and F. Neese, Theor. Chem. Acc. 131, 1292 (2012).
   D. A. Pantazis and F. Neese, J. Chem. Theory Comput. 7, 677 (2011).

================================================================================
                                        WARNINGS
                       Please study these warnings very carefully!
================================================================================

INFO   : Checking CIS options ...

INFO   : Since TDDFT/CIS Mode == RPA_AOINTS, the TAMMDANCOFF/TDA keyword is ignored. 


WARNING: (CIS/TDDFT): Spin-orbit needs TRIPLETS set to TRUE
  ===> : ajusting flags

WARNING: CIS/ROCIS methods need fully converged wavefunctions
  ===> : Setting SCFConvForced true
         You can overwrite this default with %scf ConvForced false 


INFO   : the flag for use of the SHARK integral package has been found!

================================================================================
                                       INPUT FILE
================================================================================
NAME = S_mult1.inp
|  1> !B3LYP ZORA ZORA-DEF2-TZVP SARC/J CPCM(CH2CL2) RI-SOMF(1X) AIM
|  2> %TDDFT
|  3>    NROOTS	25
|  4>    DOSOC	TRUE
|  5>    TDA		FALSE
|  6> END
|  7> %BASIS  NEWGTO  IR	"SARC-ZORA-TZVP" END
|  8> END
|  9> %PAL NPROCS 8 END
| 10> %MAXCORE 2000
| 11> * XYZFILE 0 1 s0_opt.xyz
| 12> 
| 13>                          ****END OF INPUT****
================================================================================

                       ****************************
                       * Single Point Calculation *
                       ****************************

---------------------------------
CARTESIAN COORDINATES (ANGSTROEM)
---------------------------------
  C      3.371835   -0.273963    2.786405
  C      4.056440   -1.387299    2.297651
  C      3.558785   -2.054617    1.190428
  C      2.381920   -1.617388    0.570449
  C      1.667076   -0.491302    1.053814
  C      2.203302    0.161045    2.173008
  C      1.815971   -2.290769   -0.597552
  C      2.346980   -3.428360   -1.210884
  C      1.715838   -3.979916   -2.310548
  C      0.551676   -3.389311   -2.793371
  C      0.072373   -2.265338   -2.147885
  N      0.683558   -1.727477   -1.086471
  C     -3.252220   -2.779460    2.306391
  C     -1.943202   -2.764959    2.789155
  C     -0.970424   -1.992964    2.165802
  C     -1.258785   -1.201911    1.045070
  C     -2.593292   -1.238424    0.565597
  C     -3.572047   -2.016689    1.195006
  C     -2.882515   -0.414250   -0.607088
  N     -1.819246    0.269850   -1.097382
  C     -1.966247    1.058783   -2.167490
  C     -3.174474    1.211023   -2.820640
  C     -4.278374    0.516895   -2.333994
  C     -4.130357   -0.295086   -1.224569
  C     -0.411103    1.674858    1.054122
  C     -1.235389    1.808193    2.180055
  C     -1.427806    3.032502    2.808188
  C     -0.801630    4.182065    2.325223
  C      0.013455    4.090117    1.208988
  C      0.209089    2.857195    0.575328
  C      1.066432    2.707377   -0.599549
  C      1.768944    3.741235   -1.224272
  C      2.550436    3.474795   -2.333456
  C      2.627311    2.170650   -2.813481
  C      1.911998    1.188156   -2.155429
  N      1.151639    1.443957   -1.085063
  Ir     0.003097   -0.007522    0.010461
  H      3.754511    0.255450    3.652142
  H      4.966549   -1.727145    2.775904
  H      4.092413   -2.917481    0.811577
  H      1.692411    1.026117    2.577057
  H      3.248972   -3.878189   -0.822837
  H      2.124243   -4.862046   -2.786929
  H      0.023539   -3.788348   -3.648091
  H     -0.828699   -1.768779   -2.480346
  H     -4.011201   -3.379843    2.792194
  H     -1.683645   -3.360472    3.657622
  H      0.036268   -1.997633    2.564604
  H     -4.588197   -2.031717    0.820816
  H     -1.079310    1.578990   -2.501818
  H     -3.245222    1.858897   -3.683183
  H     -5.243850    0.610866   -2.814486
  H     -4.979178   -0.836249   -0.833132
  H     -1.730899    0.932354    2.579740
  H     -2.068926    3.095449    3.680706
  H     -0.950158    5.136457    2.814714
  H      0.496835    4.984117    0.834901
  H      1.701044    4.747903   -0.838737
  H      3.095828    4.273709   -2.819414
  H      3.227896    1.916531   -3.675696
  H      1.937731    0.159371   -2.487315

----------------------------
CARTESIAN COORDINATES (A.U.)
----------------------------
  NO LB      ZA    FRAG     MASS         X           Y           Z
   0 C     6.0000    0    12.011    6.371844   -0.517714    5.265542
   1 C     6.0000    0    12.011    7.665560   -2.621616    4.341931
   2 C     6.0000    0    12.011    6.725128   -3.882664    2.249584
   3 C     6.0000    0    12.011    4.501177   -3.056420    1.077992
   4 C     6.0000    0    12.011    3.150317   -0.928426    1.991420
   5 C     6.0000    0    12.011    4.163638    0.304331    4.106390
   6 C     6.0000    0    12.011    3.431688   -4.328926   -1.129209
   7 C     6.0000    0    12.011    4.435150   -6.478662   -2.288240
   8 C     6.0000    0    12.011    3.242463   -7.520952   -4.366304
   9 C     6.0000    0    12.011    1.042516   -6.404870   -5.278706
  10 C     6.0000    0    12.011    0.136766   -4.280868   -4.058915
  11 N     7.0000    0    14.007    1.291737   -3.264458   -2.053133
  12 C     6.0000    0    12.011   -6.145805   -5.252417    4.358447
  13 C     6.0000    0    12.011   -3.672119   -5.225016    5.270738
  14 C     6.0000    0    12.011   -1.833835   -3.766157    4.092773
  15 C     6.0000    0    12.011   -2.378759   -2.271283    1.974896
  16 C     6.0000    0    12.011   -4.900611   -2.340282    1.068824
  17 C     6.0000    0    12.011   -6.750191   -3.810990    2.258235
  18 C     6.0000    0    12.011   -5.447164   -0.782819   -1.147229
  19 N     7.0000    0    14.007   -3.437878    0.509942   -2.073751
  20 C     6.0000    0    12.011   -3.715669    2.000810   -4.095963
  21 C     6.0000    0    12.011   -5.998887    2.288503   -5.330238
  22 C     6.0000    0    12.011   -8.084955    0.976791   -4.410610
  23 C     6.0000    0    12.011   -7.805243   -0.557632   -2.314100
  24 C     6.0000    0    12.011   -0.776871    3.165024    1.992002
  25 C     6.0000    0    12.011   -2.334548    3.416989    4.119706
  26 C     6.0000    0    12.011   -2.698162    5.730598    5.306707
  27 C     6.0000    0    12.011   -1.514860    7.902957    4.394034
  28 C     6.0000    0    12.011    0.025427    7.729202    2.284655
  29 C     6.0000    0    12.011    0.395121    5.399317    1.087212
  30 C     6.0000    0    12.011    2.015265    5.116200   -1.132984
  31 C     6.0000    0    12.011    3.342820    7.069910   -2.313539
  32 C     6.0000    0    12.011    4.819626    6.566410   -4.409593
  33 C     6.0000    0    12.011    4.964897    4.101934   -5.316708
  34 C     6.0000    0    12.011    3.613153    2.245289   -4.073170
  35 N     7.0000    0    14.007    2.176282    2.728682   -2.050473
  36 Ir   77.0000    0   192.220    0.005853   -0.014215    0.019768
  37 H     1.0000    0     1.008    7.094998    0.482731    6.901549
  38 H     1.0000    0     1.008    9.385418   -3.263831    5.245698
  39 H     1.0000    0     1.008    7.733539   -5.513239    1.533658
  40 H     1.0000    0     1.008    3.198193    1.939080    4.869932
  41 H     1.0000    0     1.008    6.139668   -7.328715   -1.554937
  42 H     1.0000    0     1.008    4.014237   -9.187935   -5.266532
  43 H     1.0000    0     1.008    0.044483   -7.158940   -6.893893
  44 H     1.0000    0     1.008   -1.566013   -3.342508   -4.687174
  45 H     1.0000    0     1.008   -7.580072   -6.386977    5.276482
  46 H     1.0000    0     1.008   -3.181628   -6.350372    6.911905
  47 H     1.0000    0     1.008    0.068537   -3.774979    4.846400
  48 H     1.0000    0     1.008   -8.670436   -3.839389    1.551118
  49 H     1.0000    0     1.008   -2.039601    2.983859   -4.727751
  50 H     1.0000    0     1.008   -6.132580    3.512806   -6.960207
  51 H     1.0000    0     1.008   -9.909440    1.154370   -5.318608
  52 H     1.0000    0     1.008   -9.409283   -1.580282   -1.574391
  53 H     1.0000    0     1.008   -3.270926    1.761895    4.875001
  54 H     1.0000    0     1.008   -3.909703    5.849551    6.955526
  55 H     1.0000    0     1.008   -1.795539    9.706498    5.319038
  56 H     1.0000    0     1.008    0.938883    9.418617    1.577735
  57 H     1.0000    0     1.008    3.214507    8.972236   -1.584983
  58 H     1.0000    0     1.008    5.850267    8.076140   -5.327920
  59 H     1.0000    0     1.008    6.099839    3.621718   -6.946059
  60 H     1.0000    0     1.008    3.661781    0.301167   -4.700344

--------------------------------
INTERNAL COORDINATES (ANGSTROEM)
--------------------------------
 C      0   0   0     0.000000000000     0.00000000     0.00000000
 C      1   0   0     1.395379046200     0.00000000     0.00000000
 C      2   1   0     1.385249207352   119.21372337     0.00000000
 C      3   2   1     1.400197977691   120.36034996   359.93304795
 C      4   3   2     1.418701258623   121.36587996   359.81109212
 C      1   2   3     1.389587975467   120.51286231     0.10518624
 C      4   3   2     1.462178879015   122.35825091   180.17713982
 C      7   4   3     1.397233383128   125.34521926     0.98451182
 C      8   7   4     1.382684322286   120.02726876   179.70467055
 C      9   8   7     1.391835255873   119.23657457   359.97336465
 C     10   9   8     1.381918208662   118.24224620     0.06675593
 N     11  10   9     1.337699957921   122.62794505     0.14827262
 C     12  11  10     5.301747188073    95.09573572   245.55632465
 C     13  12  11     1.395277483736    61.50380730   148.92309355
 C     14  13  12     1.389547374187   120.48726860    26.97183971
 C     15  14  13     1.401769423247   121.88207477     0.29680975
 C     16  15  14     1.418497665491   116.69577522   359.30273441
 C     13  12  11     1.385382057742    63.17593742   302.72671048
 C     17  16  15     1.462225038463   116.27371018   180.24777729
 N     19  17  16     1.356068304825   114.78515417     0.86113056
 C     20  19  17     1.337593888764   120.04163022   180.12704366
 C     21  20  19     1.381880605583   122.62937482   359.61621520
 C     22  21  20     1.391844989930   118.24554569     0.33498266
 C     23  22  21     1.382768349473   119.24045707   359.94022230
 C     20  19  17     2.930168165275   110.68454429   311.40341851
 C     25  20  19     1.401767169402   110.65828088   341.08334367
 C     26  25  20     1.389427792806   121.89548459   230.85556599
 C     27  26  25     1.395294688015   120.48703450     0.30043155
 C     28  27  26     1.385207030992   119.22953179     0.12802622
 C     29  28  27     1.399962264564   120.35943970   359.83360683
 C     30  29  28     1.462127872335   122.40383582   180.41801823
 C     31  30  29     1.397378176818   125.32499598   359.55923940
 C     32  31  30     1.382754713348   120.01241153   180.00853849
 C     33  32  31     1.391806977024   119.23719260   359.92191677
 C     34  33  32     1.382026832436   118.25023420     0.03506997
 N     35  34  33     1.337633040044   122.63428652     0.20040105
 Ir    16  15  14     2.022208949253   127.87875304   179.54783947
 H      1   2   3     1.084536999260   119.73344771   180.06517901
 H      2   1   3     1.082829682033   120.53571488   179.95157297
 H      3   2   1     1.082968644182   119.10538521   179.89900106
 H      6   1   2     1.082873888888   118.82371981   179.80089875
 H      8   7   4     1.080053770174   119.91857751   359.91799412
 H      9   8   7     1.082536526089   120.18746153   180.08336038
 H     10   9   8     1.081066462532   121.75288831   180.20330827
 H     11  10   9     1.081217384860   121.26250422   180.12977058
 H     13  12  11     1.082828709301   156.55772289    47.30627450
 H     14  13  12     1.084546866417   119.72810280   206.94593448
 H     15  14  13     1.082817528096   118.89697501   179.74315439
 H     18  13  12     1.082960802300   119.08875976   153.44591322
 H     21  20  19     1.081225291921   116.16785113   179.65769009
 H     22  21  20     1.081075793957   120.02312551   180.09826574
 H     23  22  21     1.082518866581   120.58937269   179.80137418
 H     24  23  22     1.080082195610   120.05726306   179.72287230
 H     26  25  20     1.082760636930   119.25272497    51.41575093
 H     27  26  25     1.084566106251   119.78173392   180.33523354
 H     28  27  26     1.082833103432   120.53947306   180.06498199
 H     29  28  27     1.082973976979   119.09083637   179.88286951
 H     32  31  30     1.080105033754   119.89228403     0.06529279
 H     33  32  31     1.082530321205   120.17409224   180.00472822
 H     34  33  32     1.081061984945   121.73680772   180.16789645
 H     35  34  33     1.081300069016   121.19273725   180.02753542

---------------------------
INTERNAL COORDINATES (A.U.)
---------------------------
 C      0   0   0     0.000000000000     0.00000000     0.00000000
 C      1   0   0     2.636884250331     0.00000000     0.00000000
 C      2   1   0     2.617741629127   119.21372337     0.00000000
 C      3   2   1     2.645990711107   120.36034996   359.93304795
 C      4   3   2     2.680956844646   121.36587996   359.81109212
 C      1   2   3     2.625940712622   120.51286231     0.10518624
 C      4   3   2     2.763117640142   122.35825091   180.17713982
 C      7   4   3     2.640388439283   125.34521926     0.98451182
 C      8   7   4     2.612894698787   120.02726876   179.70467055
 C      9   8   7     2.630187457136   119.23657457   359.97336465
 C     10   9   8     2.611446953851   118.24224620     0.06675593
 N     11  10   9     2.527886569828   122.62794505     0.14827262
 C     12  11  10    10.018850216744    95.09573572   245.55632465
 C     13  12  11     2.636692325088    61.50380730   148.92309355
 C     14  13  12     2.625863987322   120.48726860    26.97183971
 C     15  14  13     2.648960312841   121.88207477     0.29680975
 C     16  15  14     2.680572109386   116.69577522   359.30273441
 C     13  12  11     2.617992679980    63.17593742   302.72671048
 C     17  16  15     2.763204868857   116.27371018   180.24777729
 N     19  17  16     2.562597715011   114.78515417     0.86113056
 C     20  19  17     2.527686128171   120.04163022   180.12704366
 C     21  20  19     2.611375894329   122.62937482   359.61621520
 C     22  21  20     2.630205851838   118.24554569     0.33498266
 C     23  22  21     2.613053487159   119.24045707   359.94022230
 C     20  19  17     5.537215358705   110.68454429   311.40341851
 C     25  20  19     2.648956053692   110.65828088   341.08334367
 C     26  25  20     2.625638011263   121.89548459   230.85556599
 C     27  26  25     2.636724836463   120.48703450     0.30043155
 C     28  27  26     2.617661927357   119.22953179     0.12802622
 C     29  28  27     2.645545277849   120.35943970   359.83360683
 C     30  29  28     2.763021251486   122.40383582   180.41801823
 C     31  30  29     2.640662059704   125.32499598   359.55923940
 C     32  31  30     2.613027718616   120.01241153   180.00853849
 C     33  32  31     2.630134017857   119.23719260   359.92191677
 C     34  33  32     2.611652223036   118.25023420     0.03506997
 N     35  34  33     2.527760113367   122.63428652     0.20040105
 Ir    16  15  14     3.821421099653   127.87875304   179.54783947
 H      1   2   3     2.049477910706   119.73344771   180.06517901
 H      2   1   3     2.046251548724   120.53571488   179.95157297
 H      3   2   1     2.046514149128   119.10538521   179.89900106
 H      6   1   2     2.046335087573   118.82371981   179.80089875
 H      8   7   4     2.041005835538   119.91857751   359.91799412
 H      9   8   7     2.045697564275   120.18746153   180.08336038
 H     10   9   8     2.042919546753   121.75288831   180.20330827
 H     11  10   9     2.043204748620   121.26250422   180.12977058
 H     13  12  11     2.046249710526   156.55772289    47.30627450
 H     14  13  12     2.049496556930   119.72810280   206.94593448
 H     15  14  13     2.046228581110   118.89697501   179.74315439
 H     18  13  12     2.046499330119   119.08875976   153.44591322
 H     21  20  19     2.043219690801   116.16785113   179.65769009
 H     22  21  20     2.042937180591   120.02312551   180.09826574
 H     23  22  21     2.045664192640   120.58937269   179.80137418
 H     24  23  22     2.041059551827   120.05726306   179.72287230
 H     26  25  20     2.046121072388   119.25272497    51.41575093
 H     27  26  25     2.049532914947   119.78173392   180.33523354
 H     28  27  26     2.046258014231   120.53947306   180.06498199
 H     29  28  27     2.046524226654   119.09083637   179.88286951
 H     32  31  30     2.041102709665   119.89228403     0.06529279
 H     33  32  31     2.045685838744   120.17409224   180.00472822
 H     34  33  32     2.042911085340   121.73680772   180.16789645
 H     35  34  33     2.043360999031   121.19273725   180.02753542

---------------------
BASIS SET INFORMATION
---------------------
There are 4 groups of distinct atoms

 Group   1 Type C   : 11s6p2d1f contracted to 6s3p2d1f pattern {611111/411/11/1}
 Group   2 Type N   : 11s6p2d1f contracted to 6s3p2d1f pattern {611111/411/11/1}
 Group   3 Type Ir  : 22s15p11d6f contracted to 17s11p8d3f pattern {61111111111111111/51111111111/41111111/411}
 Group   4 Type H   : 5s1p contracted to 3s1p pattern {311/1}

Atom   0C    basis set group =>   1
Atom   1C    basis set group =>   1
Atom   2C    basis set group =>   1
Atom   3C    basis set group =>   1
Atom   4C    basis set group =>   1
Atom   5C    basis set group =>   1
Atom   6C    basis set group =>   1
Atom   7C    basis set group =>   1
Atom   8C    basis set group =>   1
Atom   9C    basis set group =>   1
Atom  10C    basis set group =>   1
Atom  11N    basis set group =>   2
Atom  12C    basis set group =>   1
Atom  13C    basis set group =>   1
Atom  14C    basis set group =>   1
Atom  15C    basis set group =>   1
Atom  16C    basis set group =>   1
Atom  17C    basis set group =>   1
Atom  18C    basis set group =>   1
Atom  19N    basis set group =>   2
Atom  20C    basis set group =>   1
Atom  21C    basis set group =>   1
Atom  22C    basis set group =>   1
Atom  23C    basis set group =>   1
Atom  24C    basis set group =>   1
Atom  25C    basis set group =>   1
Atom  26C    basis set group =>   1
Atom  27C    basis set group =>   1
Atom  28C    basis set group =>   1
Atom  29C    basis set group =>   1
Atom  30C    basis set group =>   1
Atom  31C    basis set group =>   1
Atom  32C    basis set group =>   1
Atom  33C    basis set group =>   1
Atom  34C    basis set group =>   1
Atom  35N    basis set group =>   2
Atom  36Ir   basis set group =>   3
Atom  37H    basis set group =>   4
Atom  38H    basis set group =>   4
Atom  39H    basis set group =>   4
Atom  40H    basis set group =>   4
Atom  41H    basis set group =>   4
Atom  42H    basis set group =>   4
Atom  43H    basis set group =>   4
Atom  44H    basis set group =>   4
Atom  45H    basis set group =>   4
Atom  46H    basis set group =>   4
Atom  47H    basis set group =>   4
Atom  48H    basis set group =>   4
Atom  49H    basis set group =>   4
Atom  50H    basis set group =>   4
Atom  51H    basis set group =>   4
Atom  52H    basis set group =>   4
Atom  53H    basis set group =>   4
Atom  54H    basis set group =>   4
Atom  55H    basis set group =>   4
Atom  56H    basis set group =>   4
Atom  57H    basis set group =>   4
Atom  58H    basis set group =>   4
Atom  59H    basis set group =>   4
Atom  60H    basis set group =>   4
---------------------------------
AUXILIARY/J BASIS SET INFORMATION
---------------------------------
There are 4 groups of distinct atoms

 Group   1 Type C   : 12s5p4d2f1g contracted to 12s5p4d2f1g pattern {111111111111/11111/1111/11/1}
 Group   2 Type N   : 12s5p4d2f1g contracted to 12s5p4d2f1g pattern {111111111111/11111/1111/11/1}
 Group   3 Type Ir  : 30s10p8d6f5g contracted to 30s10p8d6f5g pattern {111111111111111111111111111111/1111111111/11111111/111111/11111}
 Group   4 Type H   : 5s2p1d contracted to 5s2p1d pattern {11111/11/1}

Atom   0C    basis set group =>   1
Atom   1C    basis set group =>   1
Atom   2C    basis set group =>   1
Atom   3C    basis set group =>   1
Atom   4C    basis set group =>   1
Atom   5C    basis set group =>   1
Atom   6C    basis set group =>   1
Atom   7C    basis set group =>   1
Atom   8C    basis set group =>   1
Atom   9C    basis set group =>   1
Atom  10C    basis set group =>   1
Atom  11N    basis set group =>   2
Atom  12C    basis set group =>   1
Atom  13C    basis set group =>   1
Atom  14C    basis set group =>   1
Atom  15C    basis set group =>   1
Atom  16C    basis set group =>   1
Atom  17C    basis set group =>   1
Atom  18C    basis set group =>   1
Atom  19N    basis set group =>   2
Atom  20C    basis set group =>   1
Atom  21C    basis set group =>   1
Atom  22C    basis set group =>   1
Atom  23C    basis set group =>   1
Atom  24C    basis set group =>   1
Atom  25C    basis set group =>   1
Atom  26C    basis set group =>   1
Atom  27C    basis set group =>   1
Atom  28C    basis set group =>   1
Atom  29C    basis set group =>   1
Atom  30C    basis set group =>   1
Atom  31C    basis set group =>   1
Atom  32C    basis set group =>   1
Atom  33C    basis set group =>   1
Atom  34C    basis set group =>   1
Atom  35N    basis set group =>   2
Atom  36Ir   basis set group =>   3
Atom  37H    basis set group =>   4
Atom  38H    basis set group =>   4
Atom  39H    basis set group =>   4
Atom  40H    basis set group =>   4
Atom  41H    basis set group =>   4
Atom  42H    basis set group =>   4
Atom  43H    basis set group =>   4
Atom  44H    basis set group =>   4
Atom  45H    basis set group =>   4
Atom  46H    basis set group =>   4
Atom  47H    basis set group =>   4
Atom  48H    basis set group =>   4
Atom  49H    basis set group =>   4
Atom  50H    basis set group =>   4
Atom  51H    basis set group =>   4
Atom  52H    basis set group =>   4
Atom  53H    basis set group =>   4
Atom  54H    basis set group =>   4
Atom  55H    basis set group =>   4
Atom  56H    basis set group =>   4
Atom  57H    basis set group =>   4
Atom  58H    basis set group =>   4
Atom  59H    basis set group =>   4
Atom  60H    basis set group =>   4


           ************************************************************
           *        Program running with 8 parallel MPI-processes     *
           *              working on a common directory               *
           ************************************************************
------------------------------------------------------------------------------
                           ORCA GTO INTEGRAL CALCULATION
                           -- RI-GTO INTEGRALS CHOSEN --
------------------------------------------------------------------------------
------------------------------------------------------------------------------
                   ___                                                        
                  /   \      - P O W E R E D   B Y -                         
                 /     \                                                     
                 |  |  |   _    _      __       _____    __    __             
                 |  |  |  | |  | |    /  \     |  _  \  |  |  /  |          
                  \  \/   | |  | |   /    \    | | | |  |  | /  /          
                 / \  \   | |__| |  /  /\  \   | |_| |  |  |/  /          
                |  |  |   |  __  | /  /__\  \  |    /   |      \           
                |  |  |   | |  | | |   __   |  |    \   |  |\   \          
                \     /   | |  | | |  |  |  |  | |\  \  |  | \   \       
                 \___/    |_|  |_| |__|  |__|  |_| \__\ |__|  \__/        
                                                                              
                      - O R C A' S   B I G   F R I E N D -                    
                                      &                                       
                       - I N T E G R A L  F E E D E R -                       
                                                                              
 v1 FN, 2020, v2 2021                                                         
------------------------------------------------------------------------------


Reading SHARK input file S_mult1.SHARKINP.tmp ... ok
----------------------
SHARK INTEGRAL PACKAGE
----------------------

Number of atoms                             ...     61
Number of basis functions                   ...   1407
Number of shells                            ...    567
Maximum angular momentum                    ...      3
Integral batch strategy                     ... SHARK/LIBINT Hybrid
RI-J (if used) integral strategy            ... SPLIT-RIJ (Revised 2003 algorithm where possible)
Printlevel                                  ...      1
Contraction scheme used                     ... SEGMENTED contraction
Coulomb Range Separation                    ... NOT USED
Exchange Range Separation                   ... NOT USED
Finite Nucleus Model                        ... NOT USED
Auxiliary Coulomb fitting basis             ... AVAILABLE
   # of basis functions in Aux-J            ...   3091
   # of shells in Aux-J                     ...   1115
   Maximum angular momentum in Aux-J        ...      4
Auxiliary J/K fitting basis                 ... NOT available
Auxiliary Correlation fitting basis         ... NOT available
Auxiliary 'external' fitting basis          ... NOT available
Integral threshold                          ...     1.000000e-10
Primitive cut-off                           ...     1.000000e-11
Primitive pair pre-selection threshold      ...     1.000000e-11

Calculating pre-screening integrals         ... done (  0.4 sec) Dimension = 567
Organizing shell pair data                  ... done (  1.4 sec)
Shell pair information
Total number of shell pairs                 ...    161028
Shell pairs after pre-screening             ...     98868
Total number of primitive shell pairs       ...    422686
Primitive shell pairs kept                  ...    170999
          la=0 lb=0:  25936 shell pairs
          la=1 lb=0:  28546 shell pairs
          la=1 lb=1:   7686 shell pairs
          la=2 lb=0:  14263 shell pairs
          la=2 lb=1:   8072 shell pairs
          la=2 lb=2:   2171 shell pairs
          la=3 lb=0:   6275 shell pairs
          la=3 lb=1:   3666 shell pairs
          la=3 lb=2:   1853 shell pairs
          la=3 lb=3:    400 shell pairs

Calculating one electron integrals          ... done (  0.3 sec)
Calculating RI/J V-Matrix + Cholesky decomp.... done (  1.7 sec)
Calculating Nuclear repulsion               ... done (  0.0 sec) ENN=   6562.861108293673 Eh

SHARK setup successfully completed in   5.8 seconds

Maximum memory used throughout the entire GTOINT-calculation: 146.0 MB


           ************************************************************
           *        Program running with 8 parallel MPI-processes     *
           *              working on a common directory               *
           ************************************************************
------------------------------------------------------------------------------
                          ORCA RELATIVISTIC HAMILTONIAN
------------------------------------------------------------------------------

Relativistic Method            ... ZORA(MP)
Treatment of potential         ... Van Wuellen
Nucleus model                  ... Point Nucleus
Speed of light used            ... 137.03598950000000


            *************************************************
            *         ZERO ORDER REGULAR APPROXIMATION      *
            *                     ZORA(MP)                  *
            *            Programmed by FN according to      *
            *                   C. van Wuellen              *
            *       J. Chem. Phys. (1998) vol 109, 392-399  *
            *************************************************

Terms included in model potential: +V(e,N)+V(C)+V(Xa)+V(VWN-V)
Basis function cutoff value   ... 1.000000e-10
Loading the fitted atomic densities (ZORA)   ... done
Calculating the cutoffs                      ... done
Number of fit functions                      ... 545
Setting up the integration grid ... done

Maximum memory used throughout the entire REL-calculation: 105.9 MB


           ************************************************************
           *        Program running with 8 parallel MPI-processes     *
           *              working on a common directory               *
           ************************************************************
-------------------------------------------------------------------------------
                                 ORCA SCF
-------------------------------------------------------------------------------

------------
SCF SETTINGS
------------
Hamiltonian:
 Density Functional     Method          .... DFT(GTOs)
 Exchange Functional    Exchange        .... B88
   X-Alpha parameter    XAlpha          ....  0.666667
   Becke's b parameter  XBeta           ....  0.004200
 Correlation Functional Correlation     .... LYP
 LDA part of GGA corr.  LDAOpt          .... VWN-5
 Gradients option       PostSCFGGA      .... off
 Hybrid DFT is turned on
   Fraction HF Exchange ScalHFX         ....  0.200000
   Scaling of DF-GGA-X  ScalDFX         ....  0.720000
   Scaling of DF-GGA-C  ScalDFC         ....  0.810000
   Scaling of DF-LDA-C  ScalLDAC        ....  1.000000
   Perturbative correction              ....  0.000000
   Density functional embedding theory  .... OFF
   NL short-range parameter             ....  4.800000
 RI-approximation to the Coulomb term is turned on
   Number of AuxJ basis functions       .... 3091
   RIJ-COSX (HFX calculated with COS-X)).... on

Relativistic Settings:
 Scalar relativistic method             .... ZORA
 Speed of light used       Velit        ....       137.035989
Orbital energies will be scaled


General Settings:
 Integral files         IntName         .... S_mult1
 Hartree-Fock type      HFTyp           .... RHF
 Total Charge           Charge          ....    0
 Multiplicity           Mult            ....    1
 Number of Electrons    NEL             ....  320
 Basis Dimension        Dim             .... 1407
 Nuclear Repulsion      ENuc            ....   6562.8611082937 Eh

Convergence Acceleration:
 DIIS                   CNVDIIS         .... on
   Start iteration      DIISMaxIt       ....    12
   Startup error        DIISStart       ....  0.200000
   # of expansion vecs  DIISMaxEq       ....     5
   Bias factor          DIISBfac        ....   1.050
   Max. coefficient     DIISMaxC        ....  10.000
 Trust-Rad. Augm. Hess. CNVTRAH         .... auto
   Auto Start mean grad. ratio tolernc. ....  1.125000
   Auto Start start iteration           ....    20
   Auto Start num. interpolation iter.  ....    10
   Max. Number of Micro iterations      ....    16
   Max. Number of Macro iterations      .... Maxiter - #DIIS iter
   Number of Davidson start vectors     ....     2
   Converg. threshold I  (grad. norm)   ....   5.000e-05
   Converg. threshold II (energy diff.) ....   1.000e-06
   Grad. Scal. Fac. for Micro threshold ....   0.100
   Minimum threshold for Micro iter.    ....   0.010
   NR start threshold (gradient norm)   ....   0.001
   Initial trust radius                 ....   0.400
   Minimum AH scaling param. (alpha)    ....   1.000
   Maximum AH scaling param. (alpha)    .... 1000.000
   Orbital update algorithm             .... Taylor
   White noise on init. David. guess    .... on
   Maximum white noise                  ....   0.010
   Quad. conv. algorithm                .... NR
 SOSCF                  CNVSOSCF        .... off
 Level Shifting         CNVShift        .... on
   Level shift para.    LevelShift      ....    0.2500
   Turn off err/grad.   ShiftErr        ....    0.0010
 Zerner damping         CNVZerner       .... off
 Static damping         CNVDamp         .... on
   Fraction old density DampFac         ....    0.7000
   Max. Damping (<1)    DampMax         ....    0.9800
   Min. Damping (>=0)   DampMin         ....    0.0000
   Turn off err/grad.   DampErr         ....    0.1000
 Fernandez-Rico         CNVRico         .... off

SCF Procedure:
 Maximum # iterations   MaxIter         ....   125
 SCF integral mode      SCFMode         .... Direct
   Integral package                     .... SHARK and LIBINT hybrid scheme
 Reset frequency        DirectResetFreq ....    20
 Integral Threshold     Thresh          ....  1.000e-10 Eh
 Primitive CutOff       TCut            ....  1.000e-11 Eh

Convergence Tolerance:
 Convergence Check Mode ConvCheckMode   .... Total+1el-Energy
 Convergence forced     ConvForced      .... 1
 Energy Change          TolE            ....  1.000e-06 Eh
 1-El. energy change                    ....  1.000e-03 Eh
 DIIS Error             TolErr          ....  1.000e-06


Diagonalization of the overlap matrix:
Smallest eigenvalue                        ... 4.172e-06
Time for diagonalization                   ...    0.432 sec
Threshold for overlap eigenvalues          ... 1.000e-08
Number of eigenvalues below threshold      ... 0
Time for construction of square roots      ...    0.306 sec
Total time needed                          ...    0.752 sec

Time for model grid setup =    1.371 sec

------------------------------
INITIAL GUESS: MODEL POTENTIAL
------------------------------
Loading ZORA relativistic densities                ... done
Calculating cut-offs                               ... done
Initializing the effective Hamiltonian             ... done
Setting up the integral package (SHARK)            ... done
Starting the Coulomb interaction                   ... done (   3.8 sec)
Reading the grid                                   ... done
Mapping shells                                     ... done
Starting the XC term evaluation                    ... done (   1.5 sec)
  promolecular density results
     # of electrons  =    320.006655830
     EX              =   -545.118437648
     EC              =    -12.455400911
     EX+EC           =   -557.573838558
Transforming the Hamiltonian                       ... done (   0.3 sec)
Diagonalizing the Hamiltonian                      ... done (   0.4 sec)
Back transforming the eigenvectors                 ... done (   0.1 sec)
Now organizing SCF variables                       ... done
                      ------------------
                      INITIAL GUESS DONE (   7.5 sec)
                      ------------------
-------------------
DFT GRID GENERATION
-------------------

General Integration Accuracy     IntAcc      ... 4.388
Radial Grid Type                 RadialGrid  ... OptM3 with GC (2021)
Angular Grid (max. ang.)         AngularGrid ... 4 (Lebedev-302)
Angular grid pruning method      GridPruning ... 4 (adaptive)
Weight generation scheme         WeightScheme... Becke
Basis function cutoff            BFCut       ... 1.0000e-10
Integration weight cutoff        WCut        ... 1.0000e-14
Angular grids for H and He will be reduced by one unit
Partially contracted basis set               ... off
Rotationally invariant grid construction     ... off

Total number of grid points                  ...   315171
Total number of batches                      ...     4956
Average number of points per batch           ...       63
Average number of grid points per atom       ...     5167
Time for grid setup =    4.547 sec

--------------------
COSX GRID GENERATION
--------------------

GRIDX 1
-------
General Integration Accuracy     IntAcc      ... 3.816
Radial Grid Type                 RadialGrid  ... OptM3 with GC (2021)
Angular Grid (max. ang.)         AngularGrid ... 1 (Lebedev-50)
Angular grid pruning method      GridPruning ... 4 (adaptive)
Weight generation scheme         WeightScheme... Becke
Basis function cutoff            BFCut       ... 1.0000e-10
Integration weight cutoff        WCut        ... 1.0000e-14
Angular grids for H and He will be reduced by one unit
Partially contracted basis set               ... on
Rotationally invariant grid construction     ... off

Total number of grid points                  ...    39018
Total number of batches                      ...      633
Average number of points per batch           ...       61
Average number of grid points per atom       ...      640
UseSFitting                                  ... on

GRIDX 2
-------
General Integration Accuracy     IntAcc      ... 4.020
Radial Grid Type                 RadialGrid  ... OptM3 with GC (2021)
Angular Grid (max. ang.)         AngularGrid ... 2 (Lebedev-110)
Angular grid pruning method      GridPruning ... 4 (adaptive)
Weight generation scheme         WeightScheme... Becke
Basis function cutoff            BFCut       ... 1.0000e-10
Integration weight cutoff        WCut        ... 1.0000e-14
Angular grids for H and He will be reduced by one unit
Partially contracted basis set               ... on
Rotationally invariant grid construction     ... off

Total number of grid points                  ...    85521
Total number of batches                      ...     1370
Average number of points per batch           ...       62
Average number of grid points per atom       ...     1402
UseSFitting                                  ... on

GRIDX 3
-------
General Integration Accuracy     IntAcc      ... 4.338
Radial Grid Type                 RadialGrid  ... OptM3 with GC (2021)
Angular Grid (max. ang.)         AngularGrid ... 3 (Lebedev-194)
Angular grid pruning method      GridPruning ... 4 (adaptive)
Weight generation scheme         WeightScheme... Becke
Basis function cutoff            BFCut       ... 1.0000e-10
Integration weight cutoff        WCut        ... 1.0000e-14
Angular grids for H and He will be reduced by one unit
Partially contracted basis set               ... on
Rotationally invariant grid construction     ... off

Total number of grid points                  ...   184077
Total number of batches                      ...     2906
Average number of points per batch           ...       63
Average number of grid points per atom       ...     3018
UseSFitting                                  ... on

Time for X-Grid setup             =    8.011 sec


--------------------
CPCM SOLVATION MODEL
--------------------
CPCM parameters:
  Epsilon                                         ...       9.0800
  Refrac                                          ...       1.4240
  Rsolv                                           ...       1.3000
  Surface type                                    ... GAUSSIAN VDW
  Epsilon function type                           ...         CPCM
Radii:
 Radius for C  used is    3.8550 Bohr (=   2.0400 Ang.)
 Radius for N  used is    3.5149 Bohr (=   1.8600 Ang.)
 Radius for Ir used is    4.5353 Bohr (=   2.4000 Ang.)
 Radius for H  used is    2.4944 Bohr (=   1.3200 Ang.)
Calculating surface                               ...        done! (  0.0s)
GEPOL surface points                              ...         3057
GEPOL Volume                                      ...    3849.8150
GEPOL Surface-area                                ...    1745.7807
Calculating surface distance matrix               ...        done! (  0.2s)
Performing Cholesky decomposition & store         ...        done! (  0.8s)
Overall time for CPCM initialization              ...                 1.0s
--------------
SCF ITERATIONS
--------------
ITER       Energy         Delta-E        Max-DP      RMS-DP      [F,P]     Damp
               ***  Starting incremental Fock matrix formation  ***
  0 -19852.0374878974   0.000000000000 0.06766077  0.00063285  2.3104946 0.7000
  1 -19852.4491632634  -0.411675366016 0.04978071  0.00048043  1.6191046 0.7000
  2 -19852.6170573186  -0.167894055194 0.03601995  0.00031160  1.1335929 0.7000
  3 -19852.7194353815  -0.102378062849 0.01394726  0.00017664  0.7932873 0.7000
  4 -19852.7890626734  -0.069627291967 0.02117568  0.00010337  0.5551528 0.7000
  5 -19852.8376448720  -0.048582198597 0.02629485  0.00007452  0.3885581 0.7000
  6 -19852.8717941688  -0.034149296756 0.02479425  0.00005687  0.2719607 0.7000
                               ***Turning on DIIS***
  7 -19852.8956867830  -0.023892614194 0.01966024  0.00004198  0.1903329 0.7000
  8 -19852.9124100046  -0.016723221619 0.01056488  0.00002850  0.1331925 0.7000
  9 -19852.9241202705  -0.011710265884 0.01677016  0.00006694  0.0932178 0.0000
 10 -19852.9514631139  -0.027342843416 0.00601661  0.00001103  0.0010856 0.0000
 11 -19852.9514572099   0.000005903956 0.00130749  0.00000562  0.0019423 0.0000
               *** Restarting incremental Fock matrix formation ***
                                   *** Resetting DIIS ***
 12 -19852.9514375270   0.000019682964 0.00965593  0.00009612  0.0003958 0.0000
 13 -19852.9514293587   0.000008168216 0.00049185  0.00000314  0.0015401 0.0000
 14 -19852.9514390332  -0.000009674495 0.00487538  0.00000878  0.0006201 0.0000
 15 -19852.9514414767  -0.000002443503 0.01046682  0.00001522  0.0000402 0.0000
 16 -19852.9514414528   0.000000023963 0.00204989  0.00000451  0.0000331 0.0000
 17 -19852.9514410144   0.000000438336 0.00127429  0.00000444  0.0000158 0.0000
                 **** Energy Check signals convergence ****

               *****************************************************
               *                     SUCCESS                       *
               *           SCF CONVERGED AFTER  18 CYCLES          *
               *****************************************************

Old exchange energy                            =   -109.213731106 Eh
New exchange energy                            =   -109.213738484 Eh
Exchange energy change after final integration =     -0.000007378 Eh
Total energy after final integration           = -19852.951448210 Eh
Final COS-X integration done in                =   157.757 sec

----------------
TOTAL SCF ENERGY
----------------

Total Energy       :       -19852.95144821 Eh         -540226.27348 eV

Components:
Nuclear Repulsion  :         6562.86110829 Eh          178584.52982 eV
Electronic Energy  :       -26415.81255650 Eh         -718810.80330 eV
One Electron Energy:       -40063.43896569 Eh        -1090181.59802 eV
Two Electron Energy:        13647.62640919 Eh          371370.79472 eV
Max COSX asymmetry :            0.00000348 Eh               0.00009 eV
CPCM Dielectric    :           -0.02536931 Eh              -0.69033 eV

Virial components:
Potential Energy   :       -41774.52634274 Eh        -1136742.65267 eV
Kinetic Energy     :        21921.57489453 Eh          596516.37919 eV
Virial Ratio       :            1.90563527


DFT components:
N(Alpha)           :      160.000398224130 electrons
N(Beta)            :      160.000398224130 electrons
N(Total)           :      320.000796448260 electrons
E(X)               :     -435.796157825777 Eh       
E(C)               :      -14.658994879338 Eh       
E(XC)              :     -450.455152705114 Eh       
DFET-embed. en.    :        0.000000000000 Eh       
CPCM Solvation Model Properties:
Surface-charge          :           -0.04411163
Charge-correction       :           -0.00017549 Eh              -0.00478 eV
Free-energy (cav+disp)  :  This term is not implemented in the current solvation scheme

---------------
SCF CONVERGENCE
---------------

  Last Energy change         ...    1.8256e-07  Tolerance :   1.0000e-06
  Last MAX-Density change    ...    0.0000e+00  Tolerance :   1.0000e-05
  Last RMS-Density change    ...    0.0000e+00  Tolerance :   1.0000e-06
  Last DIIS Error            ...    2.4776e-06  Tolerance :   1.0000e-06

             **** THE GBW FILE WAS UPDATED (S_mult1.gbw) ****
             **** DENSITY S_mult1.scfp WAS UPDATED ****
             **** ENERGY FILE WAS UPDATED (S_mult1.en.tmp) ****
             **** THE GBW FILE WAS UPDATED (S_mult1.gbw) ****
             **** DENSITY S_mult1.scfp WAS UPDATED ****
----------------
ORBITAL ENERGIES
----------------

  NO   OCC          E(Eh)            E(eV) 
   0   2.0000   -3055.026027    -83131.4845 
   1   2.0000    -499.917467    -13603.4459 
   2   2.0000    -433.690946    -11801.3306 
   3   2.0000    -433.690939    -11801.3304 
   4   2.0000    -433.690458    -11801.3173 
   5   2.0000    -115.963320     -3155.5224 
   6   2.0000     -96.898423     -2636.7402 
   7   2.0000     -96.898402     -2636.7396 
   8   2.0000     -96.897180     -2636.7063 
   9   2.0000     -75.967304     -2067.1754 
  10   2.0000     -75.967297     -2067.1752 
  11   2.0000     -75.966610     -2067.1565 
  12   2.0000     -75.965448     -2067.1249 
  13   2.0000     -75.965433     -2067.1245 
  14   2.0000     -24.847479      -676.1343 
  15   2.0000     -18.594265      -505.9757 
  16   2.0000     -18.594226      -505.9746 
  17   2.0000     -18.591149      -505.8909 
  18   2.0000     -14.370442      -391.0396 
  19   2.0000     -14.370427      -391.0392 
  20   2.0000     -14.370356      -391.0373 
  21   2.0000     -10.913867      -296.9814 
  22   2.0000     -10.913844      -296.9808 
  23   2.0000     -10.910139      -296.8800 
  24   2.0000     -10.910111      -296.8792 
  25   2.0000     -10.908256      -296.8287 
  26   2.0000     -10.233837      -278.4769 
  27   2.0000     -10.233802      -278.4759 
  28   2.0000     -10.233705      -278.4733 
  29   2.0000     -10.226739      -278.2837 
  30   2.0000     -10.226657      -278.2815 
  31   2.0000     -10.226584      -278.2795 
  32   2.0000     -10.204221      -277.6710 
  33   2.0000     -10.204156      -277.6692 
  34   2.0000     -10.204089      -277.6674 
  35   2.0000     -10.195361      -277.4299 
  36   2.0000     -10.195334      -277.4291 
  37   2.0000     -10.195241      -277.4266 
  38   2.0000     -10.194543      -277.4076 
  39   2.0000     -10.194499      -277.4064 
  40   2.0000     -10.194458      -277.4053 
  41   2.0000     -10.178166      -276.9620 
  42   2.0000     -10.178148      -276.9615 
  43   2.0000     -10.178068      -276.9593 
  44   2.0000     -10.177514      -276.9442 
  45   2.0000     -10.177501      -276.9439 
  46   2.0000     -10.177430      -276.9420 
  47   2.0000     -10.174496      -276.8621 
  48   2.0000     -10.174495      -276.8621 
  49   2.0000     -10.174401      -276.8595 
  50   2.0000     -10.170068      -276.7416 
  51   2.0000     -10.170063      -276.7415 
  52   2.0000     -10.169982      -276.7393 
  53   2.0000     -10.165603      -276.6201 
  54   2.0000     -10.165508      -276.6175 
  55   2.0000     -10.165454      -276.6161 
  56   2.0000     -10.161959      -276.5209 
  57   2.0000     -10.161919      -276.5199 
  58   2.0000     -10.161775      -276.5159 
  59   2.0000      -3.653475       -99.4161 
  60   2.0000      -2.358469       -64.1772 
  61   2.0000      -2.357332       -64.1463 
  62   2.0000      -2.357321       -64.1460 
  63   2.0000      -2.356568       -64.1255 
  64   2.0000      -2.353332       -64.0374 
  65   2.0000      -2.353310       -64.0368 
  66   2.0000      -2.350210       -63.9525 
  67   2.0000      -2.025506       -55.1168 
  68   2.0000      -2.025436       -55.1149 
  69   2.0000      -2.016670       -54.8764 
  70   2.0000      -0.969636       -26.3851 
  71   2.0000      -0.965801       -26.2808 
  72   2.0000      -0.965781       -26.2802 
  73   2.0000      -0.845957       -23.0196 
  74   2.0000      -0.844591       -22.9825 
  75   2.0000      -0.844548       -22.9813 
  76   2.0000      -0.814636       -22.1674 
  77   2.0000      -0.813076       -22.1249 
  78   2.0000      -0.813028       -22.1236 
  79   2.0000      -0.788627       -21.4596 
  80   2.0000      -0.788603       -21.4590 
  81   2.0000      -0.788344       -21.4519 
  82   2.0000      -0.732801       -19.9405 
  83   2.0000      -0.728936       -19.8354 
  84   2.0000      -0.728875       -19.8337 
  85   2.0000      -0.724614       -19.7177 
  86   2.0000      -0.723042       -19.6750 
  87   2.0000      -0.723006       -19.6740 
  88   2.0000      -0.649233       -17.6665 
  89   2.0000      -0.649204       -17.6658 
  90   2.0000      -0.648487       -17.6462 
  91   2.0000      -0.642482       -17.4828 
  92   2.0000      -0.638699       -17.3799 
  93   2.0000      -0.638660       -17.3788 
  94   2.0000      -0.586160       -15.9502 
  95   2.0000      -0.583861       -15.8877 
  96   2.0000      -0.583829       -15.8868 
  97   2.0000      -0.578401       -15.7391 
  98   2.0000      -0.578349       -15.7377 
  99   2.0000      -0.577920       -15.7260 
 100   2.0000      -0.539815       -14.6891 
 101   2.0000      -0.531246       -14.4559 
 102   2.0000      -0.531195       -14.4546 
 103   2.0000      -0.497560       -13.5393 
 104   2.0000      -0.497517       -13.5381 
 105   2.0000      -0.497353       -13.5337 
 106   2.0000      -0.490993       -13.3606 
 107   2.0000      -0.490949       -13.3594 
 108   2.0000      -0.490173       -13.3383 
 109   2.0000      -0.472077       -12.8459 
 110   2.0000      -0.469541       -12.7769 
 111   2.0000      -0.469487       -12.7754 
 112   2.0000      -0.445788       -12.1305 
 113   2.0000      -0.439002       -11.9459 
 114   2.0000      -0.438786       -11.9400 
 115   2.0000      -0.435767       -11.8578 
 116   2.0000      -0.435643       -11.8545 
 117   2.0000      -0.432729       -11.7751 
 118   2.0000      -0.429415       -11.6850 
 119   2.0000      -0.429216       -11.6795 
 120   2.0000      -0.423005       -11.5105 
 121   2.0000      -0.422303       -11.4915 
 122   2.0000      -0.421748       -11.4763 
 123   2.0000      -0.421667       -11.4742 
 124   2.0000      -0.416376       -11.3302 
 125   2.0000      -0.412951       -11.2370 
 126   2.0000      -0.412922       -11.2362 
 127   2.0000      -0.389312       -10.5937 
 128   2.0000      -0.384183       -10.4541 
 129   2.0000      -0.384149       -10.4532 
 130   2.0000      -0.371015       -10.0958 
 131   2.0000      -0.370969       -10.0946 
 132   2.0000      -0.368496       -10.0273 
 133   2.0000      -0.364635        -9.9222 
 134   2.0000      -0.360551        -9.8111 
 135   2.0000      -0.360505        -9.8098 
 136   2.0000      -0.347444        -9.4544 
 137   2.0000      -0.347435        -9.4542 
 138   2.0000      -0.343483        -9.3467 
 139   2.0000      -0.331905        -9.0316 
 140   2.0000      -0.328687        -8.9440 
 141   2.0000      -0.328564        -8.9407 
 142   2.0000      -0.311921        -8.4878 
 143   2.0000      -0.311725        -8.4825 
 144   2.0000      -0.309153        -8.4125 
 145   2.0000      -0.296043        -8.0557 
 146   2.0000      -0.290007        -7.8915 
 147   2.0000      -0.289934        -7.8895 
 148   2.0000      -0.271250        -7.3811 
 149   2.0000      -0.271013        -7.3746 
 150   2.0000      -0.260570        -7.0905 
 151   2.0000      -0.254854        -6.9349 
 152   2.0000      -0.254732        -6.9316 
 153   2.0000      -0.249590        -6.7917 
 154   2.0000      -0.234652        -6.3852 
 155   2.0000      -0.230222        -6.2647 
 156   2.0000      -0.230090        -6.2611 
 157   2.0000      -0.196701        -5.3525 
 158   2.0000      -0.196556        -5.3486 
 159   2.0000      -0.191028        -5.1981 
 160   0.0000      -0.056328        -1.5328 
 161   0.0000      -0.051596        -1.4040 
 162   0.0000      -0.051423        -1.3993 
 163   0.0000      -0.043545        -1.1849 
 164   0.0000      -0.032763        -0.8915 
 165   0.0000      -0.032725        -0.8905 
 166   0.0000       0.005241         0.1426 
 167   0.0000       0.011335         0.3085 
 168   0.0000       0.011533         0.3138 
 169   0.0000       0.025087         0.6827 
 170   0.0000       0.032247         0.8775 
 171   0.0000       0.032311         0.8792 
 172   0.0000       0.051457         1.4002 
 173   0.0000       0.051820         1.4101 
 174   0.0000       0.052030         1.4158 
 175   0.0000       0.060704         1.6518 
 176   0.0000       0.060754         1.6532 
 177   0.0000       0.064561         1.7568 
 178   0.0000       0.072241         1.9658 
 179   0.0000       0.074208         2.0193 
 180   0.0000       0.074389         2.0242 
 181   0.0000       0.087222         2.3734 
 182   0.0000       0.087394         2.3781 
 183   0.0000       0.090187         2.4541 
 184   0.0000       0.090243         2.4556 
 185   0.0000       0.092492         2.5168 
 186   0.0000       0.094906         2.5825 
 187   0.0000       0.101998         2.7755 
 188   0.0000       0.102019         2.7761 
 189   0.0000       0.112099         3.0504 
 190   0.0000       0.112128         3.0512 
 191   0.0000       0.113451         3.0872 
 192   0.0000       0.114277         3.1096 
 193   0.0000       0.118751         3.2314 
 194   0.0000       0.118908         3.2357 
 195   0.0000       0.119015         3.2386 
 196   0.0000       0.125218         3.4074 
 197   0.0000       0.125280         3.4090 
 198   0.0000       0.136760         3.7214 
 199   0.0000       0.136918         3.7257 
 200   0.0000       0.138655         3.7730 
 201   0.0000       0.159202         4.3321 
 202   0.0000       0.161784         4.4024 
 203   0.0000       0.161986         4.4079 
 204   0.0000       0.167740         4.5644 
 205   0.0000       0.172954         4.7063 
 206   0.0000       0.174404         4.7458 
 207   0.0000       0.174652         4.7525 
 208   0.0000       0.182839         4.9753 
 209   0.0000       0.186108         5.0643 
 210   0.0000       0.186248         5.0681 
 211   0.0000       0.189794         5.1646 
 212   0.0000       0.190199         5.1756 
 213   0.0000       0.198062         5.3895 
 214   0.0000       0.199595         5.4312 
 215   0.0000       0.199688         5.4338 
 216   0.0000       0.200189         5.4474 
 217   0.0000       0.204603         5.5675 
 218   0.0000       0.208907         5.6846 
 219   0.0000       0.208965         5.6862 
 220   0.0000       0.212819         5.7911 
 221   0.0000       0.217187         5.9099 
 222   0.0000       0.217487         5.9181 
 223   0.0000       0.221582         6.0296 
 224   0.0000       0.224787         6.1168 
 225   0.0000       0.225268         6.1298 
 226   0.0000       0.228991         6.2312 
 227   0.0000       0.233260         6.3473 
 228   0.0000       0.233527         6.3546 
 229   0.0000       0.239398         6.5144 
 230   0.0000       0.242247         6.5919 
 231   0.0000       0.242495         6.5986 
 232   0.0000       0.245525         6.6811 
 233   0.0000       0.248008         6.7486 
 234   0.0000       0.248338         6.7576 
 235   0.0000       0.250316         6.8114 
 236   0.0000       0.253713         6.9039 
 237   0.0000       0.254426         6.9233 
 238   0.0000       0.257753         7.0138 
 239   0.0000       0.259233         7.0541 
 240   0.0000       0.262863         7.1529 
 241   0.0000       0.262887         7.1535 
 242   0.0000       0.267335         7.2745 
 243   0.0000       0.267596         7.2817 
 244   0.0000       0.268843         7.3156 
 245   0.0000       0.275118         7.4863 
 246   0.0000       0.275295         7.4912 
 247   0.0000       0.282659         7.6916 
 248   0.0000       0.286458         7.7949 
 249   0.0000       0.287302         7.8179 
 250   0.0000       0.292931         7.9711 
 251   0.0000       0.293449         7.9852 
 252   0.0000       0.300472         8.1763 
 253   0.0000       0.310018         8.4360 
 254   0.0000       0.310092         8.4380 
 255   0.0000       0.311700         8.4818 
 256   0.0000       0.313131         8.5207 
 257   0.0000       0.316826         8.6213 
 258   0.0000       0.316899         8.6233 
 259   0.0000       0.321626         8.7519 
 260   0.0000       0.322612         8.7787 
 261   0.0000       0.322662         8.7801 
 262   0.0000       0.336114         9.1461 
 263   0.0000       0.336449         9.1553 
 264   0.0000       0.337221         9.1762 
 265   0.0000       0.340284         9.2596 
 266   0.0000       0.343183         9.3385 
 267   0.0000       0.345844         9.4109 
 268   0.0000       0.346354         9.4248 
 269   0.0000       0.350749         9.5444 
 270   0.0000       0.354623         9.6498 
 271   0.0000       0.355151         9.6642 
 272   0.0000       0.360997         9.8232 
 273   0.0000       0.362809         9.8725 
 274   0.0000       0.362900         9.8750 
 275   0.0000       0.364203         9.9105 
 276   0.0000       0.366732         9.9793 
 277   0.0000       0.367247         9.9933 
 278   0.0000       0.375411        10.2155 
 279   0.0000       0.378659        10.3038 
 280   0.0000       0.379389        10.3237 
 281   0.0000       0.386476        10.5165 
 282   0.0000       0.387167        10.5353 
 283   0.0000       0.388052        10.5594 
 284   0.0000       0.394837        10.7441 
 285   0.0000       0.395160        10.7529 
 286   0.0000       0.398584        10.8460 
 287   0.0000       0.400319        10.8932 
 288   0.0000       0.400568        10.9000 
 289   0.0000       0.400746        10.9049 
 290   0.0000       0.406823        11.0702 
 291   0.0000       0.408647        11.1198 
 292   0.0000       0.409174        11.1342 
 293   0.0000       0.410915        11.1816 
 294   0.0000       0.411514        11.1979 
 295   0.0000       0.415415        11.3040 
 296   0.0000       0.420963        11.4550 
 297   0.0000       0.421167        11.4605 
 298   0.0000       0.426182        11.5970 
 299   0.0000       0.428349        11.6560 
 300   0.0000       0.428654        11.6643 
 301   0.0000       0.431488        11.7414 
 302   0.0000       0.432970        11.7817 
 303   0.0000       0.433152        11.7867 
 304   0.0000       0.435088        11.8394 
 305   0.0000       0.445086        12.1114 
 306   0.0000       0.445184        12.1141 
 307   0.0000       0.446354        12.1459 
 308   0.0000       0.446623        12.1532 
 309   0.0000       0.449595        12.2341 
 310   0.0000       0.453592        12.3429 
 311   0.0000       0.454275        12.3615 
 312   0.0000       0.454919        12.3790 
 313   0.0000       0.461311        12.5529 
 314   0.0000       0.467680        12.7262 
 315   0.0000       0.468014        12.7353 
 316   0.0000       0.471540        12.8312 
 317   0.0000       0.472675        12.8622 
 318   0.0000       0.473002        12.8710 
 319   0.0000       0.473973        12.8975 
 320   0.0000       0.478279        13.0146 
 321   0.0000       0.481441        13.1007 
 322   0.0000       0.481526        13.1030 
 323   0.0000       0.491866        13.3844 
 324   0.0000       0.492514        13.4020 
 325   0.0000       0.493051        13.4166 
 326   0.0000       0.496091        13.4993 
 327   0.0000       0.503039        13.6884 
 328   0.0000       0.507914        13.8210 
 329   0.0000       0.508057        13.8249 
 330   0.0000       0.514979        14.0133 
 331   0.0000       0.517006        14.0685 
 332   0.0000       0.517134        14.0719 
 333   0.0000       0.526452        14.3255 
 334   0.0000       0.527498        14.3539 
 335   0.0000       0.528124        14.3710 
 336   0.0000       0.531365        14.4592 
 337   0.0000       0.531463        14.4618 
 338   0.0000       0.538993        14.6668 
 339   0.0000       0.539637        14.6843 
 340   0.0000       0.540573        14.7097 
 341   0.0000       0.541535        14.7359 
 342   0.0000       0.549774        14.9601 
 343   0.0000       0.550178        14.9711 
 344   0.0000       0.557189        15.1619 
 345   0.0000       0.557745        15.1770 
 346   0.0000       0.564098        15.3499 
 347   0.0000       0.571108        15.5406 
 348   0.0000       0.573240        15.5987 
 349   0.0000       0.587716        15.9926 
 350   0.0000       0.596214        16.2238 
 351   0.0000       0.602138        16.3850 
 352   0.0000       0.602708        16.4005 
 353   0.0000       0.607492        16.5307 
 354   0.0000       0.610833        16.6216 
 355   0.0000       0.611134        16.6298 
 356   0.0000       0.615514        16.7490 
 357   0.0000       0.623809        16.9747 
 358   0.0000       0.625917        17.0321 
 359   0.0000       0.626131        17.0379 
 360   0.0000       0.626938        17.0598 
 361   0.0000       0.634019        17.2525 
 362   0.0000       0.634503        17.2657 
 363   0.0000       0.645223        17.5574 
 364   0.0000       0.646667        17.5967 
 365   0.0000       0.649193        17.6654 
 366   0.0000       0.650727        17.7072 
 367   0.0000       0.651459        17.7271 
 368   0.0000       0.653571        17.7846 
 369   0.0000       0.655342        17.8328 
 370   0.0000       0.656049        17.8520 
 371   0.0000       0.662005        18.0141 
 372   0.0000       0.663193        18.0464 
 373   0.0000       0.669692        18.2233 
 374   0.0000       0.677820        18.4444 
 375   0.0000       0.679587        18.4925 
 376   0.0000       0.680255        18.5107 
 377   0.0000       0.687272        18.7016 
 378   0.0000       0.688218        18.7274 
 379   0.0000       0.690760        18.7965 
 380   0.0000       0.694325        18.8936 
 381   0.0000       0.695637        18.9292 
 382   0.0000       0.698448        19.0057 
 383   0.0000       0.699275        19.0282 
 384   0.0000       0.701387        19.0857 
 385   0.0000       0.704201        19.1623 
 386   0.0000       0.707997        19.2656 
 387   0.0000       0.713517        19.4158 
 388   0.0000       0.714795        19.4506 
 389   0.0000       0.722786        19.6680 
 390   0.0000       0.724414        19.7123 
 391   0.0000       0.725176        19.7330 
 392   0.0000       0.729642        19.8546 
 393   0.0000       0.731522        19.9057 
 394   0.0000       0.733058        19.9475 
 395   0.0000       0.740096        20.1390 
 396   0.0000       0.740764        20.1572 
 397   0.0000       0.741227        20.1698 
 398   0.0000       0.749787        20.4027 
 399   0.0000       0.750605        20.4250 
 400   0.0000       0.758940        20.6518 
 401   0.0000       0.759936        20.6789 
 402   0.0000       0.760522        20.6949 
 403   0.0000       0.765466        20.8294 
 404   0.0000       0.766696        20.8629 
 405   0.0000       0.767507        20.8849 
 406   0.0000       0.777635        21.1605 
 407   0.0000       0.781313        21.2606 
 408   0.0000       0.781967        21.2784 
 409   0.0000       0.786271        21.3955 
 410   0.0000       0.786454        21.4005 
 411   0.0000       0.788742        21.4628 
 412   0.0000       0.791899        21.5487 
 413   0.0000       0.793673        21.5969 
 414   0.0000       0.794300        21.6140 
 415   0.0000       0.799187        21.7470 
 416   0.0000       0.808031        21.9876 
 417   0.0000       0.808535        22.0014 
 418   0.0000       0.808704        22.0060 
 419   0.0000       0.811528        22.0828 
 420   0.0000       0.817466        22.2444 
 421   0.0000       0.824548        22.4371 
 422   0.0000       0.824910        22.4470 
 423   0.0000       0.830700        22.6045 
 424   0.0000       0.831593        22.6288 
 425   0.0000       0.834712        22.7137 
 426   0.0000       0.838788        22.8246 
 427   0.0000       0.839853        22.8536 
 428   0.0000       0.849543        23.1172 
 429   0.0000       0.850572        23.1452 
 430   0.0000       0.853302        23.2195 
 431   0.0000       0.860045        23.4030 
 432   0.0000       0.860243        23.4084 
 433   0.0000       0.866972        23.5915 
 434   0.0000       0.881670        23.9915 
 435   0.0000       0.882666        24.0186 
 436   0.0000       0.883213        24.0334 
 437   0.0000       0.893361        24.3096 
 438   0.0000       0.894157        24.3312 
 439   0.0000       0.895935        24.3796 
 440   0.0000       0.901249        24.5242 
 441   0.0000       0.901709        24.5368 
 442   0.0000       0.908332        24.7170 
 443   0.0000       0.927137        25.2287 
 444   0.0000       0.927578        25.2407 
 445   0.0000       0.928867        25.2758 
 446   0.0000       0.934404        25.4264 
 447   0.0000       0.934796        25.4371 
 448   0.0000       0.939558        25.5667 
 449   0.0000       0.940674        25.5970 
 450   0.0000       0.946607        25.7585 
 451   0.0000       0.953964        25.9587 
 452   0.0000       0.959115        26.0988 
 453   0.0000       0.959395        26.1065 
 454   0.0000       0.963267        26.2118 
 455   0.0000       0.967722        26.3330 
 456   0.0000       0.971719        26.4418 
 457   0.0000       0.972455        26.4618 
 458   0.0000       0.977239        26.5920 
 459   0.0000       0.978136        26.6164 
 460   0.0000       0.982748        26.7419 
 461   0.0000       0.988218        26.8908 
 462   0.0000       0.989223        26.9181 
 463   0.0000       1.001686        27.2573 
 464   0.0000       1.002964        27.2920 
 465   0.0000       1.006624        27.3916 
 466   0.0000       1.006895        27.3990 
 467   0.0000       1.017159        27.6783 
 468   0.0000       1.024275        27.8719 
 469   0.0000       1.024758        27.8851 
 470   0.0000       1.029509        28.0144 
 471   0.0000       1.030014        28.0281 
 472   0.0000       1.039677        28.2910 
 473   0.0000       1.048964        28.5438 
 474   0.0000       1.057388        28.7730 
 475   0.0000       1.058712        28.8090 
 476   0.0000       1.066128        29.0108 
 477   0.0000       1.066323        29.0161 
 478   0.0000       1.076912        29.3043 
 479   0.0000       1.077318        29.3153 
 480   0.0000       1.084237        29.5036 
 481   0.0000       1.090355        29.6701 
 482   0.0000       1.091334        29.6967 
 483   0.0000       1.092111        29.7179 
 484   0.0000       1.101228        29.9659 
 485   0.0000       1.105116        30.0717 
 486   0.0000       1.105936        30.0941 
 487   0.0000       1.110833        30.2273 
 488   0.0000       1.111420        30.2433 
 489   0.0000       1.116542        30.3826 
 490   0.0000       1.119450        30.4618 
 491   0.0000       1.119527        30.4639 
 492   0.0000       1.124211        30.5913 
 493   0.0000       1.132690        30.8221 
 494   0.0000       1.140874        31.0448 
 495   0.0000       1.141997        31.0753 
 496   0.0000       1.147387        31.2220 
 497   0.0000       1.150896        31.3175 
 498   0.0000       1.165322        31.7100 
 499   0.0000       1.165911        31.7260 
 500   0.0000       1.167413        31.7669 
 501   0.0000       1.178753        32.0755 
 502   0.0000       1.180782        32.1307 
 503   0.0000       1.181801        32.1585 
 504   0.0000       1.190037        32.3826 
 505   0.0000       1.191285        32.4165 
 506   0.0000       1.199450        32.6387 
 507   0.0000       1.199592        32.6426 
 508   0.0000       1.203526        32.7496 
 509   0.0000       1.208167        32.8759 
 510   0.0000       1.209483        32.9117 
 511   0.0000       1.209831        32.9212 
 512   0.0000       1.224702        33.3258 
 513   0.0000       1.225242        33.3405 
 514   0.0000       1.235734        33.6260 
 515   0.0000       1.235932        33.6314 
 516   0.0000       1.237181        33.6654 
 517   0.0000       1.242502        33.8102 
 518   0.0000       1.249551        34.0020 
 519   0.0000       1.250036        34.0152 
 520   0.0000       1.251157        34.0457 
 521   0.0000       1.258014        34.2323 
 522   0.0000       1.260269        34.2937 
 523   0.0000       1.261026        34.3143 
 524   0.0000       1.273871        34.6638 
 525   0.0000       1.274337        34.6765 
 526   0.0000       1.279916        34.8283 
 527   0.0000       1.281040        34.8589 
 528   0.0000       1.285390        34.9772 
 529   0.0000       1.285719        34.9862 
 530   0.0000       1.288579        35.0640 
 531   0.0000       1.289024        35.0761 
 532   0.0000       1.302882        35.4532 
 533   0.0000       1.303360        35.4662 
 534   0.0000       1.306195        35.5434 
 535   0.0000       1.310851        35.6701 
 536   0.0000       1.319517        35.9059 
 537   0.0000       1.319828        35.9143 
 538   0.0000       1.321348        35.9557 
 539   0.0000       1.328957        36.1628 
 540   0.0000       1.329951        36.1898 
 541   0.0000       1.336704        36.3736 
 542   0.0000       1.340186        36.4683 
 543   0.0000       1.340810        36.4853 
 544   0.0000       1.341257        36.4974 
 545   0.0000       1.347709        36.6730 
 546   0.0000       1.348134        36.6846 
 547   0.0000       1.349130        36.7117 
 548   0.0000       1.355284        36.8792 
 549   0.0000       1.366764        37.1915 
 550   0.0000       1.367345        37.2073 
 551   0.0000       1.372081        37.3362 
 552   0.0000       1.372783        37.3553 
 553   0.0000       1.385041        37.6889 
 554   0.0000       1.386063        37.7167 
 555   0.0000       1.387576        37.7579 
 556   0.0000       1.397327        38.0232 
 557   0.0000       1.405367        38.2420 
 558   0.0000       1.406203        38.2647 
 559   0.0000       1.412202        38.4280 
 560   0.0000       1.414629        38.4940 
 561   0.0000       1.418967        38.6121 
 562   0.0000       1.424323        38.7578 
 563   0.0000       1.434934        39.0465 
 564   0.0000       1.438005        39.1301 
 565   0.0000       1.438645        39.1475 
 566   0.0000       1.444121        39.2965 
 567   0.0000       1.445608        39.3370 
 568   0.0000       1.449017        39.4298 
 569   0.0000       1.462542        39.7978 
 570   0.0000       1.463188        39.8154 
 571   0.0000       1.463828        39.8328 
 572   0.0000       1.470353        40.0103 
 573   0.0000       1.478311        40.2269 
 574   0.0000       1.479545        40.2605 
 575   0.0000       1.493693        40.6455 
 576   0.0000       1.494369        40.6638 
[...]
   0  57   27519.2    363.4   0.000223979   0.00004 (  0.00026,  0.00008) (  0.00008,  0.00002) ( -0.00623, -0.00180)
   0  58   27860.1    358.9   0.000109041   0.00002 ( -0.00032,  0.00005) (  0.00002, -0.00000) (  0.00450, -0.00066)
   0  59   27869.8    358.8   0.000079609   0.00002 (  0.00297, -0.00105) ( -0.00215,  0.00076) (  0.00022, -0.00008)
   0  60   27878.2    358.7   0.000077991   0.00001 (  0.00076,  0.00230) (  0.00094,  0.00284) (  0.00006,  0.00018)
   0  61   28061.0    356.4   0.000030142   0.00001 (  0.00011, -0.00145) (  0.00014, -0.00190) (  0.00001, -0.00017)
   0  62   28062.3    356.4   0.000027947   0.00001 ( -0.00141, -0.00140) (  0.00084,  0.00083) ( -0.00009, -0.00009)
   0  63   28530.1    350.5   0.001228836   0.00024 (  0.00255,  0.00190) ( -0.00064, -0.00048) ( -0.01212, -0.00905)
   0  64   28634.0    349.2   0.005836128   0.00114 (  0.02318,  0.02454) ( -0.00053, -0.00056) (  0.00095,  0.00100)
   0  65   28648.9    349.1   0.005692778   0.00111 (  0.00046, -0.00048) (  0.02305, -0.02413) ( -0.00044,  0.00047)
   0  66   28984.6    345.0   0.000002676   0.00000 (  0.00001, -0.00002) ( -0.00003,  0.00006) (  0.00027, -0.00067)
   0  67   29362.7    340.6   0.001168424   0.00023 (  0.00048, -0.00226) (  0.00315, -0.01480) ( -0.00003,  0.00012)
   0  68   29364.5    340.5   0.001093828   0.00022 (  0.01414,  0.00351) ( -0.00264, -0.00066) ( -0.00008, -0.00002)
   0  69   29981.2    333.5   0.000000072   0.00000 (  0.00003,  0.00001) ( -0.00010, -0.00004) (  0.00003,  0.00002)
   0  70   30288.7    330.2   0.000040235   0.00001 (  0.00070,  0.00068) (  0.00078,  0.00075) ( -0.00179, -0.00173)
   0  71   30293.1    330.1   0.000049353   0.00001 (  0.00077,  0.00052) (  0.00077,  0.00052) (  0.00241,  0.00163)
   0  72   30315.1    329.9   0.000017365   0.00000 ( -0.00077,  0.00074) (  0.00081, -0.00078) (  0.00079, -0.00076)
   0  73   30421.1    328.7   0.000076274   0.00002 ( -0.00065, -0.00184) ( -0.00116, -0.00327) (  0.00007,  0.00019)
   0  74   30434.8    328.6   0.000103233   0.00002 (  0.00352, -0.00188) ( -0.00207,  0.00110) (  0.00017, -0.00009)
   0  75   30988.4    322.7   0.000024910   0.00001 (  0.00000,  0.00002) (  0.00002,  0.00027) ( -0.00021, -0.00227)
   0  76   31055.3    322.0   0.000047923   0.00001 (  0.00246,  0.00163) ( -0.00100, -0.00066) ( -0.00014, -0.00009)
   0  77   31068.7    321.9   0.000016241   0.00000 (  0.00037, -0.00057) (  0.00094, -0.00144) (  0.00006, -0.00009)
   0  78   31258.0    319.9   0.001150645   0.00025 (  0.00172, -0.01375) (  0.00035, -0.00283) ( -0.00084,  0.00670)
   0  79   31272.4    319.8   0.001977249   0.00042 ( -0.00889, -0.00219) (  0.01778,  0.00438) ( -0.00182, -0.00045)
   0  80   31276.4    319.7   0.001280916   0.00027 (  0.00158, -0.01270) (  0.00103, -0.00830) (  0.00078, -0.00628)
   0  81   31392.7    318.5   0.000037911   0.00001 (  0.00122, -0.00058) ( -0.00098,  0.00047) ( -0.00204,  0.00097)
   0  82   31623.3    316.2   0.000000951   0.00000 ( -0.00015, -0.00008) (  0.00037,  0.00019) ( -0.00002, -0.00001)
   0  83   31624.6    316.2   0.000001281   0.00000 (  0.00019, -0.00043) ( -0.00008,  0.00019) (  0.00005, -0.00012)
   0  84   31626.0    316.2   0.000002152   0.00000 ( -0.00007,  0.00009) (  0.00004, -0.00005) (  0.00041, -0.00053)
   0  85   31699.1    315.5   0.000016728   0.00000 (  0.00015,  0.00014) (  0.00031,  0.00030) (  0.00133,  0.00128)
   0  86   31704.3    315.4   0.000017143   0.00000 ( -0.00031,  0.00086) ( -0.00018,  0.00049) (  0.00055, -0.00151)
   0  87   31706.5    315.4   0.000003180   0.00000 ( -0.00033,  0.00065) ( -0.00011,  0.00021) (  0.00015, -0.00029)
   0  88   31713.9    315.3   0.000008074   0.00000 ( -0.00000, -0.00038) (  0.00000,  0.00067) (  0.00001,  0.00107)
   0  89   31729.9    315.2   0.000087102   0.00002 (  0.00288,  0.00204) (  0.00205,  0.00145) (  0.00035,  0.00025)
   0  90   31732.7    315.1   0.000099688   0.00002 ( -0.00136, -0.00274) (  0.00155,  0.00312) ( -0.00013, -0.00025)
   0  91   33007.0    303.0   0.000000610   0.00000 (  0.00006, -0.00007) ( -0.00015,  0.00018) ( -0.00018,  0.00021)
   0  92   33014.7    302.9   0.000018245   0.00000 ( -0.00139,  0.00004) (  0.00147, -0.00004) (  0.00016, -0.00000)
   0  93   33018.0    302.9   0.000021383   0.00000 (  0.00005,  0.00153) (  0.00005,  0.00157) ( -0.00000, -0.00002)
   0  94   34040.2    293.8   0.001018074   0.00024 (  0.00234, -0.00285) ( -0.00947,  0.01156) (  0.00008, -0.00010)
   0  95   34070.2    293.5   0.000952290   0.00022 ( -0.01128, -0.00896) ( -0.00294, -0.00233) (  0.00011,  0.00009)
   0  96   34796.8    287.4   0.001893100   0.00045 (  0.00908,  0.00277) ( -0.01267, -0.00387) (  0.01299,  0.00397)
   0  97   34818.0    287.2   0.003031549   0.00072 (  0.00796, -0.01219) (  0.01204, -0.01843) (  0.00273, -0.00417)
   0  98   34833.3    287.1   0.002729417   0.00065 (  0.01689,  0.01152) ( -0.00787, -0.00537) ( -0.00981, -0.00669)
   0  99   34981.2    285.9   0.001493738   0.00036 ( -0.00277,  0.00118) (  0.00378, -0.00161) ( -0.01675,  0.00712)
   0 100   35122.6    284.7   0.006575510   0.00158 (  0.00009,  0.00001) (  0.00066,  0.00010) ( -0.03927, -0.00598)

-------------------------------------------------------------------------------------------------------
                                     SOC CORRECTED CD SPECTRUM*  
-------------------------------------------------------------------------------------------------------
   State    Energy  Wavelength      R               MX                    MY                    MZ  
            (cm-1)     (nm)      (1e40*sgs)         (au)                  (au)                  (au) 
-------------------------------------------------------------------------------------------------------
   0   1   20839.5    479.9     -0.01010 ( -0.00011, -0.00010) (  0.00007,  0.00006) ( -0.00118, -0.00105)
   0   2   20887.0    478.8     -4.15525 ( -0.01313, -0.02833) (  0.01037,  0.02239) (  0.00131,  0.00283)
   0   3   20894.7    478.6     -4.38640 ( -0.02324,  0.01048) ( -0.02659,  0.01199) (  0.00393, -0.00177)
   0   4   21049.5    475.1      1.10514 (  0.00570, -0.00303) (  0.00211, -0.00112) (  0.08742, -0.04638)
   0   5   21060.0    474.8     -0.32054 ( -0.00354,  0.01905) ( -0.00009,  0.00049) (  0.00095, -0.00510)
   0   6   21078.8    474.4     -0.36784 ( -0.00011, -0.00001) (  0.01899,  0.00235) ( -0.00161, -0.00020)
   0   7   21148.1    472.9      0.86186 ( -0.01108, -0.01045) (  0.01428,  0.01347) ( -0.00156, -0.00148)
   0   8   21161.0    472.6      0.79087 ( -0.00926,  0.01489) ( -0.00744,  0.01197) (  0.00600, -0.00965)
   0   9   21372.0    467.9     -3.03263 (  0.00188, -0.00063) (  0.00013, -0.00004) (  0.08554, -0.02857)
   0  10   21845.2    457.8     45.12834 (  0.00800, -0.00447) (  0.00187, -0.00105) (  0.24551, -0.13720)
   0  11   21999.6    454.6    -11.16105 (  0.00335,  0.00078) ( -0.16576, -0.03838) (  0.00293,  0.00068)
   0  12   22021.8    454.1    -10.45312 (  0.02929, -0.16675) (  0.00064, -0.00366) ( -0.00193,  0.01098)
   0  13   23550.9    424.6     -0.69807 (  0.00886, -0.01063) (  0.01492, -0.01789) ( -0.00375,  0.00450)
   0  14   23563.2    424.4     -0.69999 (  0.02056,  0.01577) ( -0.01218, -0.00934) (  0.00000,  0.00000)
   0  15   23594.9    423.8      2.65395 (  0.00110, -0.00096) (  0.00088, -0.00077) (  0.06601, -0.05743)
   0  16   23715.1    421.7      0.66119 ( -0.01248, -0.03223) ( -0.00002, -0.00005) (  0.00079,  0.00205)
   0  17   23720.5    421.6      0.74881 (  0.00032, -0.00007) (  0.03397, -0.00761) (  0.00248, -0.00056)
   0  18   23806.1    420.1      0.06032 ( -0.00002,  0.00030) ( -0.00013,  0.00192) (  0.00084, -0.01293)
   0  19   24361.4    410.5     -0.03204 (  0.00108, -0.00160) ( -0.00118,  0.00174) (  0.00254, -0.00374)
   0  20   24369.7    410.3     -0.94237 ( -0.00490, -0.00373) ( -0.00168, -0.00128) ( -0.02405, -0.01834)
   0  21   24452.0    409.0     -1.44820 (  0.00176,  0.00022) ( -0.00047, -0.00006) (  0.18638,  0.02337)
   0  22   24659.7    405.5     -5.74502 (  0.04673, -0.06670) ( -0.01384,  0.01975) (  0.00012, -0.00017)
   0  23   24662.9    405.5     -6.09367 (  0.01775,  0.01264) (  0.06724,  0.04789) (  0.00008,  0.00006)
   0  24   24672.7    405.3     -0.21499 ( -0.00113,  0.00345) (  0.00162, -0.00494) (  0.00543, -0.01661)
   0  25   24879.8    401.9      8.05900 (  0.00022,  0.00006) ( -0.00085, -0.00023) (  0.04094,  0.01120)
   0  26   25130.0    397.9     25.70325 ( -0.00549, -0.00251) (  0.00418,  0.00192) ( -0.20372, -0.09336)
   0  27   25223.4    396.5    -29.88402 ( -0.02460,  0.00030) (  0.16121, -0.00200) (  0.00076, -0.00001)
   0  28   25233.5    396.3    -29.98483 ( -0.00057,  0.16082) ( -0.00009,  0.02484) (  0.00000, -0.00016)
   0  29   25416.4    393.4     -2.18012 (  0.02099,  0.00805) (  0.03874,  0.01485) (  0.00566,  0.00217)
   0  30   25429.2    393.2     -3.43416 (  0.02568, -0.03939) ( -0.01577,  0.02420) ( -0.00286,  0.00438)
   0  31   25457.3    392.8      1.73562 ( -0.00040, -0.00047) ( -0.00195, -0.00228) ( -0.05806, -0.06807)
   0  32   25599.6    390.6     -0.17146 (  0.00622, -0.00423) (  0.00515, -0.00350) ( -0.00436,  0.00297)
   0  33   25645.9    389.9     -3.59526 (  0.02208,  0.02137) (  0.02349,  0.02273) (  0.00280,  0.00271)
   0  34   25654.5    389.8     -3.96326 (  0.02371, -0.02611) ( -0.02302,  0.02534) (  0.00240, -0.00265)
   0  35   26034.4    384.1    -54.95030 ( -0.18260, -0.09454) (  0.07655,  0.03963) ( -0.00210, -0.00108)
   0  36   26053.6    383.8    -58.03221 ( -0.01269, -0.08804) ( -0.02888, -0.20030) ( -0.00028, -0.00192)
   0  37   26168.6    382.1     28.49927 (  0.01404, -0.00521) ( -0.00310,  0.00115) ( -0.15114,  0.05611)
   0  38   26552.2    376.6      1.99101 (  0.03894,  0.02041) (  0.04199,  0.02201) (  0.00066,  0.00034)
   0  39   26555.2    376.6      2.64755 (  0.03434, -0.01481) ( -0.05125,  0.02210) ( -0.00025,  0.00011)
   0  40   26593.7    376.0      3.25058 (  0.00064, -0.00194) ( -0.02337,  0.07113) (  0.00004, -0.00013)
   0  41   26596.4    376.0      4.05658 (  0.07343,  0.02643) (  0.01407,  0.00506) (  0.00039,  0.00014)
   0  42   26634.1    375.5      0.21734 ( -0.00214,  0.00108) (  0.00844, -0.00427) ( -0.00388,  0.00196)
   0  43   26671.9    374.9     11.39041 ( -0.05182,  0.01798) ( -0.12524,  0.04346) (  0.00102, -0.00035)
   0  44   26679.2    374.8     13.72087 (  0.12808,  0.03089) ( -0.05962, -0.01438) ( -0.00021, -0.00005)
   0  45   26825.7    372.8      0.72095 ( -0.00060,  0.00233) (  0.00110, -0.00427) (  0.00608, -0.02362)
   0  46   26957.4    371.0      4.55658 (  0.00143, -0.02762) (  0.00344, -0.06644) ( -0.00006,  0.00114)
   0  47   26960.3    370.9      2.29790 ( -0.04622, -0.00517) (  0.01557,  0.00174) ( -0.00101, -0.00011)
   0  48   26969.6    370.8      2.72983 ( -0.04049,  0.01564) (  0.02983, -0.01152) (  0.00182, -0.00070)
   0  49   27009.5    370.2      5.56718 (  0.05872,  0.06140) (  0.01585,  0.01657) ( -0.00076, -0.00080)
   0  50   27016.2    370.1      4.96742 (  0.01092, -0.01857) ( -0.04362,  0.07422) ( -0.00026,  0.00044)
   0  51   27102.7    369.0      1.92803 (  0.00563,  0.00211) ( -0.00050, -0.00019) (  0.01915,  0.00717)
   0  52   27152.6    368.3     -1.42413 (  0.03962, -0.01526) ( -0.01425,  0.00549) ( -0.00169,  0.00065)
   0  53   27157.7    368.2     -1.36950 (  0.00767,  0.01809) (  0.01644,  0.03876) (  0.00015,  0.00035)
   0  54   27174.7    368.0      1.36289 (  0.00608,  0.00073) ( -0.00113, -0.00014) (  0.02023,  0.00242)
   0  55   27287.4    366.5     -0.98387 (  0.01031, -0.00292) ( -0.03779,  0.01071) ( -0.00034,  0.00010)
   0  56   27293.5    366.4     -1.01418 (  0.01202,  0.03977) (  0.00395,  0.01307) (  0.00020,  0.00066)
   0  57   27519.2    363.4      9.98363 (  0.00401,  0.00116) ( -0.00677, -0.00195) (  0.04871,  0.01404)
   0  58   27860.1    358.9      0.03284 (  0.00027, -0.00004) ( -0.00178,  0.00026) (  0.01133, -0.00167)
   0  59   27869.8    358.8      0.16981 (  0.01370, -0.00485) (  0.00738, -0.00261) (  0.00119, -0.00042)
   0  60   27878.2    358.7      0.16747 ( -0.00264, -0.00799) (  0.00405,  0.01224) ( -0.00010, -0.00030)
   0  61   28061.0    356.4     -1.40252 ( -0.00274,  0.03716) ( -0.00376,  0.05089) ( -0.00006,  0.00081)
   0  62   28062.3    356.4     -1.33680 (  0.03607,  0.03567) ( -0.02709, -0.02679) (  0.00017,  0.00016)
   0  63   28530.1    350.5     11.12381 (  0.00283,  0.00212) ( -0.00301, -0.00225) (  0.02215,  0.01654)
   0  64   28634.0    349.2      4.33765 (  0.02016,  0.02134) ( -0.00365, -0.00387) ( -0.00219, -0.00232)
   0  65   28648.9    349.1      4.32335 (  0.00469, -0.00491) (  0.01969, -0.02061) (  0.00129, -0.00135)
   0  66   28984.6    345.0      0.03401 (  0.00005, -0.00013) ( -0.00003,  0.00007) (  0.00088, -0.00219)
   0  67   29362.7    340.6     -1.95969 (  0.00883, -0.04146) ( -0.00584,  0.02744) (  0.00014, -0.00064)
   0  68   29364.5    340.5     -1.90190 ( -0.02774, -0.00689) ( -0.04102, -0.01019) ( -0.00048, -0.00012)
   0  69   29981.2    333.5      0.57768 (  0.00034,  0.00015) (  0.00058,  0.00025) (  0.02259,  0.00999)
   0  70   30288.7    330.2      0.28797 (  0.00042,  0.00041) (  0.00027,  0.00026) ( -0.00569, -0.00547)
   0  71   30293.1    330.1      0.36030 ( -0.00456, -0.00309) (  0.00250,  0.00169) (  0.00835,  0.00565)
   0  72   30315.1    329.9      0.04759 (  0.00006, -0.00006) ( -0.00122,  0.00117) (  0.00263, -0.00252)
   0  73   30421.1    328.7     -0.52852 (  0.00345,  0.00969) ( -0.01137, -0.03195) (  0.00067,  0.00188)
   0  74   30434.8    328.6     -0.49807 (  0.03080, -0.01644) (  0.00850, -0.00454) (  0.00082, -0.00044)
   0  75   30988.4    322.7      0.14522 (  0.00005,  0.00054) ( -0.00001, -0.00007) ( -0.00167, -0.01838)
   0  76   31055.3    322.0     -1.17972 ( -0.02566, -0.01695) (  0.00190,  0.00125) ( -0.00027, -0.00018)
   0  77   31068.7    321.9     -1.33072 ( -0.00035,  0.00054) ( -0.01784,  0.02726) (  0.00055, -0.00084)
   0  78   31258.0    319.9      3.70051 (  0.00039, -0.00309) (  0.00129, -0.01031) ( -0.00412,  0.03288)
   0  79   31272.4    319.8      2.40368 ( -0.01661, -0.00410) ( -0.00288, -0.00071) ( -0.01376, -0.00339)
   0  80   31276.4    319.7      3.18067 ( -0.00063,  0.00508) (  0.00127, -0.01019) (  0.00427, -0.03427)
   0  81   31392.7    318.5     -7.47186 ( -0.00131,  0.00062) (  0.00185, -0.00088) ( -0.05854,  0.02790)
   0  82   31623.3    316.2     -0.09371 ( -0.00251, -0.00130) (  0.00577,  0.00298) ( -0.00038, -0.00020)
   0  83   31624.6    316.2     -0.08878 (  0.00276, -0.00621) (  0.00090, -0.00203) (  0.00069, -0.00155)
   0  84   31626.0    316.2      0.02388 ( -0.00134,  0.00171) ( -0.00095,  0.00121) (  0.00311, -0.00396)
   0  85   31699.1    315.5      0.08399 ( -0.00237, -0.00228) (  0.00080,  0.00077) (  0.00371,  0.00357)
   0  86   31704.3    315.4     -0.02904 (  0.00012, -0.00032) ( -0.00039,  0.00108) (  0.00260, -0.00715)
   0  87   31706.5    315.4      0.00413 ( -0.00015,  0.00029) ( -0.00263,  0.00516) ( -0.00180,  0.00354)
   0  88   31713.9    315.3     -0.86194 ( -0.00001, -0.00227) (  0.00000,  0.00017) (  0.00011,  0.01801)
   0  89   31729.9    315.2      0.50006 (  0.00731,  0.00518) (  0.01293,  0.00915) (  0.00154,  0.00109)
   0  90   31732.7    315.1      0.50555 ( -0.00727, -0.01466) (  0.00360,  0.00726) ( -0.00141, -0.00285)
   0  91   33007.0    303.0      0.04866 (  0.00061, -0.00072) (  0.00022, -0.00026) ( -0.00871,  0.01034)
   0  92   33014.7    302.9     -0.60084 ( -0.00937,  0.00025) ( -0.01579,  0.00042) (  0.00023, -0.00001)
   0  93   33018.0    302.9     -0.61941 ( -0.00051, -0.01588) (  0.00032,  0.01005) ( -0.00007, -0.00205)
   0  94   34040.2    293.8    -90.04390 (  0.22950, -0.28026) (  0.02045, -0.02498) (  0.00223, -0.00272)
   0  95   34070.2    293.5    -88.38940 (  0.03134,  0.02489) ( -0.27969, -0.22217) (  0.00123,  0.00098)
   0  96   34796.8    287.4     -3.38377 (  0.08516,  0.02602) (  0.21511,  0.06573) (  0.21223,  0.06485)
   0  97   34818.0    287.2    -153.07135 ( -0.21894,  0.33516) (  0.01020, -0.01562) (  0.05674, -0.08686)
   0  98   34833.3    287.1    -62.61669 ( -0.03091, -0.02108) (  0.28767,  0.19623) ( -0.18177, -0.12399)
   0  99   34981.2    285.9    290.21653 ( -0.02684,  0.01141) ( -0.06221,  0.02644) ( -0.37490,  0.15934)
   0 100   35122.6    284.7    142.20661 ( -0.00434, -0.00066) (  0.00270,  0.00041) ( -0.20184, -0.03074)

*The complex numbers are printed as (real, imaginary)

The electronic components of the SOC ground state dipole moment in a.u. are:
           X                     Y                     Z
(  0.09846,  0.00000) ( -0.24582,  0.00000) ( -3.55645,  0.00000)

Total run time:     6303.441 sec

           *** ORCA-CIS/TD-DFT FINISHED WITHOUT ERROR ***

Maximum memory used throughout the entire CIS-calculation: 3206.2 MB

---------------------------
SOC CIS/TD-DFT TOTAL ENERGY
---------------------------

    E(SCF)        = -19852.951448210 Eh
    E(SOC CIS)    =      0.094538083 Eh (SOC Root  1)
    ----------------------------- ---------
    E(tot)        = -19852.856910127 Eh


-------------------------   --------------------
FINAL SINGLE POINT ENERGY    -19852.856910127077
-------------------------   --------------------


                            ***************************************
                            *     ORCA property calculations      *
                            ***************************************

                                    ---------------------
                                    Active property flags
                                    ---------------------
   (+) Dipole Moment


------------------------------------------------------------------------------
                       ORCA ELECTRIC PROPERTIES CALCULATION
------------------------------------------------------------------------------

Dipole Moment Calculation                       ... on
Quadrupole Moment Calculation                   ... off
Polarizability Calculation                      ... off
GBWName                                         ... S_mult1.gbw
Electron density                                ... S_mult1.scfp
The origin for moment calculation is the CENTER OF MASS  = ( 0.002053, -0.004890 -0.023571)

-------------
DIPOLE MOMENT
-------------
                                X             Y             Z
Electronic contribution:      0.09838      -0.24589      -3.56708
Nuclear contribution   :     -0.10703       0.26218      -0.40185
                        -----------------------------------------
Total Dipole Moment    :     -0.00865       0.01629      -3.96893
                        -----------------------------------------
Magnitude (a.u.)       :      3.96897
Magnitude (Debye)      :     10.08833



--------------------
Rotational spectrum 
--------------------
 
Rotational constants in cm-1:     0.004022     0.004014     0.003353 
Rotational constants in MHz :   120.587015   120.323492   100.534292 

 Dipole components along the rotational axes: 
x,y,z [a.u.] :    -0.018724     0.006080    -3.968925 
x,y,z [Debye]:    -0.047593     0.015454   -10.088205 

 
---------
ORCA_2AIM
---------

basename on input = S_mult1
Check for input file     ... done
Reading the gbw file     ... done
Writing the WFN file     ... done
Writing the WFX file     ... done

Timings for individual modules:

Sum of individual times         ...     7706.239 sec (= 128.437 min)
GTO integral calculation        ...        6.981 sec (=   0.116 min)   0.1 %
Relativistic integrals          ...       40.257 sec (=   0.671 min)   0.5 %
SCF iterations                  ...     1343.200 sec (=  22.387 min)  17.4 %
CIS module                      ...     6315.801 sec (= 105.263 min)  82.0 %
                             ****ORCA TERMINATED NORMALLY****
TOTAL RUN TIME: 0 days 2 hours 8 minutes 45 seconds 23 msec
